LAMMPS data file via write_data, version 29 Sep 2021, timestep = 0

1100 atoms
3 atom types
100 bonds
1 bond types

0 36 xlo xhi
0 36 ylo yhi
0 36 zlo zhi

Masses

1 15
2 17
3 18

Atoms # bond

1 1 1 11.350247273731378 1.3448158592338872 1.0918088800962809 0 0 0
2 1 2 10.649752726268622 0.6551841407661128 0.908191119903719 0 0 0
3 2 1 14.540077003679775 1.0622884765040383 1.1859865133568355 0 0 0
4 2 2 15.459922996320225 0.9377115234959618 0.8140134866431646 0 0 0
5 3 1 2.5009246120387196 5.026792970796554 1.0143490016096057 0 0 0
6 3 2 3.4990753879612804 4.973207029203446 0.9856509983903943 0 0 0
7 4 1 4.540899282169921 9.146235381586761 1.1335729915068173 0 0 0
8 4 2 5.459100717830079 8.853764618413239 0.8664270084931828 0 0 0
9 5 1 24.765993569929798 9.434325227408332 0.9187436924140642 0 0 0
10 5 2 25.234006430070202 8.565674772591668 1.0812563075859358 0 0 0
11 6 1 11.13068678616697 11.391338831663026 0.7175555227058492 0 0 0
12 6 2 10.86931321383303 10.608661168336974 1.2824444772941508 0 0 0
13 7 1 26.74310440770571 15.300966787509934 1.305652821802314 0 0 0
14 7 2 27.25689559229429 14.699033212490066 0.6943471781976861 0 0 0
15 8 1 16.91202705901112 19.28918821227384 1.3982849978791931 0 0 0
16 8 2 17.08797294098888 18.71081178772616 0.6017150021208069 0 0 0
17 9 1 12.608508978322389 22.762205442178196 0.7995292335123314 0 0 0
18 9 2 13.391491021677611 23.237794557821804 1.2004707664876686 0 0 0
19 10 1 19.37701243521291 25.267374092225015 0.8092836700707576 0 0 0
20 10 2 18.62298756478709 24.732625907774985 1.1907163299292425 0 0 0
21 11 1 18.509666351623487 27.025937383474698 0.9056593120214601 0 0 0
22 11 2 19.490333648376513 26.974062616525302 1.0943406879785398 0 0 0
23 12 1 16.936463356285035 5.3618778383001215 3.3391275940596232 0 0 0
24 12 2 17.063536643714965 4.6381221616998785 2.6608724059403768 0 0 0
25 13 1 4.57083719965994 13.256168306022733 2.985961132747922 0 0 0
26 13 2 5.42916280034006 12.743831693977267 3.014038867252078 0 0 0
27 14 1 25.09333981851765 19.243882489311346 3.4263906772977015 0 0 0
28 14 2 24.90666018148235 18.756117510688654 2.5736093227022985 0 0 0
29 15 1 24.500945125089896 25.023429535381375 2.9801181313686587 0 0 0
30 15 2 25.499054874910104 24.976570464618625 3.0198818686313413 0 0 0
31 16 1 26.508803438420763 25.058556733959087 2.927219186588924 0 0 0
32 16 2 27.491196561579237 24.941443266040913 3.072780813411076 0 0 0
33 17 1 12.982978834279528 26.837912902127176 2.527307655424079 0 0 0
34 17 2 13.017021165720472 27.162087097872824 3.472692344575921 0 0 0
35 18 1 25.0475650410477 1.191678384186887 5.459344058311017 0 0 0
36 18 2 24.9524349589523 0.808321615813113 4.540655941688983 0 0 0
37 19 1 20.724944168051607 2.8340744331202226 4.616838160085321 0 0 0
38 19 2 21.275055831948393 3.1659255668797774 5.383161839914679 0 0 0
39 20 1 10.694915996109785 4.7287694648954055 4.711282582102862 0 0 0
40 20 2 11.305084003890215 5.2712305351045945 5.288717417897138 0 0 0
41 21 1 24.54252767869207 16.82644124167496 5.1029389753485335 0 0 0
42 21 2 25.45747232130793 17.17355875832504 4.8970610246514665 0 0 0
43 22 1 26.8538833756687 20.526163894179643 4.935740549994385 0 0 0
44 22 2 27.1461166243313 21.473836105820357 5.064259450005615 0 0 0
45 23 1 0.5004191776508489 2.982980923197759 7.011373344527681 0 0 0
46 23 2 1.4995808223491511 3.017019076802241 6.988626655472319 0 0 0
47 24 1 8.90713040890972 3.3108659601692447 6.619556056877261 0 0 0
48 24 2 9.09286959109028 2.6891340398307553 7.380443943122739 0 0 0
49 25 1 6.921052618056119 8.50719347707538 7.030150320846575 0 0 0
50 25 2 7.078947381943881 9.49280652292462 6.969849679153425 0 0 0
51 26 1 23.28622851617588 8.781417162220174 7.346835378177996 0 0 0
52 26 2 22.71377148382412 9.218582837779826 6.653164621822004 0 0 0
53 27 1 24.899993534103647 9.085644594976749 7.482352267673938 0 0 0
54 27 2 25.100006465896353 8.914355405023251 6.517647732326062 0 0 0
55 28 1 18.960991967797174 13.45849717624302 7.195598345598426 0 0 0
56 28 2 19.039008032202826 12.54150282375698 6.804401654401574 0 0 0
57 29 1 16.790622530098197 24.692386518203207 7.333968592706523 0 0 0
58 29 2 17.209377469901803 25.307613481796793 6.666031407293477 0 0 0
59 30 1 8.512967648036081 3.064754786604969 8.907229822937333 0 0 0
60 30 2 9.487032351963919 2.935245213395031 9.092770177062667 0 0 0
61 31 1 24.668666269485303 2.8200481211196706 9.328382825846075 0 0 0
62 31 2 25.331333730514697 3.1799518788803294 8.671617174153925 0 0 0
63 32 1 2.717742646609494 5.151979872074129 8.616290598315185 0 0 0
64 32 2 3.282257353390506 4.848020127925871 9.383709401684815 0 0 0
65 33 1 22.53053153645332 7.151254793607236 9.081983834662411 0 0 0
66 33 2 23.46946846354668 6.848745206392764 8.918016165337589 0 0 0
67 34 1 20.95852945591951 11.4823903881915 9.124818697934728 0 0 0
68 34 2 21.04147054408049 10.5176096118085 8.875181302065272 0 0 0
69 35 1 18.56002824647547 23.14204298558418 9.190390772746165 0 0 0
70 35 2 19.43997175352453 22.85795701441582 8.809609227253835 0 0 0
71 36 1 12.500778466908526 24.979631848388035 9.01905254045292 0 0 0
72 36 2 13.499221533091474 25.020368151611965 8.98094745954708 0 0 0
73 37 1 24.58914407808618 25.031823529352735 8.716831014396208 0 0 0
74 37 2 25.41085592191382 24.968176470647265 9.283168985603792 0 0 0
75 38 1 23.032985210583075 4.724804312251636 10.583851818065373 0 0 0
76 38 2 22.967014789416925 5.275195687748364 11.416148181934627 0 0 0
77 39 1 3.1604645830282134 7.0454348773618785 10.528633062770952 0 0 0
78 39 2 2.8395354169717866 6.9545651226381215 11.471366937229048 0 0 0
79 40 1 8.517751843668066 6.896942799711683 10.917441359124654 0 0 0
80 40 2 9.482248156331934 7.103057200288317 11.082558640875346 0 0 0
81 41 1 25.184135144888067 12.75223275506719 10.60667362057007 0 0 0
82 41 2 24.815864855111933 13.24776724493281 11.39332637942993 0 0 0
83 42 1 27.30000234969694 14.658437607551551 11.208167534071015 0 0 0
84 42 2 26.69999765030306 15.341562392448449 10.791832465928985 0 0 0
85 43 1 12.72365321574298 19.40118354955261 10.887375782359337 0 0 0
86 43 2 13.27634678425702 18.59881645044739 11.112624217640663 0 0 0
87 44 1 4.984014369623555 20.99145194763888 10.500328717632982 0 0 0
88 44 2 5.015985630376445 21.00854805236112 11.499671282367018 0 0 0
89 45 1 1.4237013070736162 23.105929455676627 11.243425867163214 0 0 0
90 45 2 0.5762986929263838 22.894070544323373 10.756574132836786 0 0 0
91 46 1 4.811600425273221 3.4224644050245296 13.189814190012337 0 0 0
92 46 2 5.188399574726779 2.5775355949754704 12.810185809987663 0 0 0
93 47 1 23.200818121534333 14.903528810237622 12.552378070678778 0 0 0
94 47 2 22.799181878465667 15.096471189762378 13.447621929321222 0 0 0
95 48 1 26.836217364604774 15.449921622115701 12.855966037700233 0 0 0
96 48 2 27.163782635395226 14.550078377884299 13.144033962299767 0 0 0
97 49 1 11.411036113924693 18.823159417633242 13.22310697317178 0 0 0
98 49 2 10.588963886075307 19.176840582366758 12.77689302682822 0 0 0
99 50 1 6.506709237232233 20.928091351537475 12.961355858862081 0 0 0
100 50 2 7.493290762767767 21.071908648462525 13.038644141137919 0 0 0
101 51 1 1.444882867592436 22.783566926346875 12.927640074960019 0 0 0
102 51 2 0.555117132407564 23.216433073653125 13.072359925039981 0 0 0
103 52 1 14.974646358239541 26.544642138501356 12.795045344476238 0 0 0
104 52 2 15.025353641760459 27.455357861498644 13.204954655523762 0 0 0
105 53 1 18.605857574872154 0.6924544168460535 15.008213586113293 0 0 0
106 53 2 19.394142425127846 1.3075455831539466 14.991786413886707 0 0 0
107 54 1 2.544371890369197 5.189974251699982 15.079453190025907 0 0 0
108 54 2 3.455628109630803 4.810025748300018 14.920546809974093 0 0 0
109 55 1 24.845727324717238 10.669682696042075 14.65781522481696 0 0 0
110 55 2 25.154272675282762 11.330317303957925 15.34218477518304 0 0 0
111 56 1 8.999041300294317 12.566441015533739 15.249049569129237 0 0 0
112 56 2 9.000958699705683 13.433558984466261 14.750950430870763 0 0 0
113 57 1 18.829363853781707 20.863892876092414 15.44984236841962 0 0 0
114 57 2 19.170636146218293 21.136107123907586 14.55015763158038 0 0 0
115 58 1 21.35034668092971 24.722567307605143 15.224250539245897 0 0 0
116 58 2 20.64965331907029 25.277432692394857 14.775749460754103 0 0 0
117 59 1 3.224833209505821 0.597694004773869 17.193906972820535 0 0 0
118 59 2 2.775166790494179 1.402305995226131 16.806093027179465 0 0 0
119 60 1 14.847856192096636 8.67734703410051 17.350353143717772 0 0 0
120 60 2 15.152143807903364 9.32265296589949 16.649646856282228 0 0 0
121 61 1 24.614968464062454 8.99592785650658 17.318957887472536 0 0 0
122 61 2 25.385031535937546 9.00407214349342 16.681042112527464 0 0 0
123 62 1 0.5675876835214386 14.852242538216515 17.202946596534524 0 0 0
124 62 2 1.4324123164785614 15.147757461783485 16.797053403465476 0 0 0
125 63 1 3.0266402248607047 17.09134232408307 17.490863400805637 0 0 0
126 63 2 2.9733597751392953 16.90865767591693 16.509136599194363 0 0 0
127 64 1 15.033037294941916 16.50115082017514 17.007617934824157 0 0 0
128 64 2 14.966962705058084 17.49884917982486 16.992382065175843 0 0 0
129 65 1 13.323245291866016 19.23988798351173 17.296591025914697 0 0 0
130 65 2 12.676754708133984 18.76011201648827 16.703408974085303 0 0 0
131 66 1 7.038834975816599 22.81628542394784 17.463401337071115 0 0 0
132 66 2 6.961165024183401 23.18371457605216 16.536598662928885 0 0 0
133 67 1 24.78170029482275 22.680252610089987 17.316396658271323 0 0 0
134 67 2 25.21829970517725 23.319747389910013 16.683603341728677 0 0 0
135 68 1 6.824010625365692 27.25277511877684 17.393868606699215 0 0 0
136 68 2 7.175989374634308 26.74722488122316 16.606131393300785 0 0 0
137 69 1 12.833613273812894 3.4516777490519366 19.135287354767964 0 0 0
138 69 2 13.166386726187106 2.5483222509480634 18.864712645232036 0 0 0
139 70 1 10.560146500199004 5.095635653619545 18.78232427680245 0 0 0
140 70 2 11.439853499800996 4.904364346380455 19.21767572319755 0 0 0
141 71 1 14.517768180985922 11.046262469398387 19.123742703443625 0 0 0
142 71 2 15.482231819014078 10.953737530601613 18.876257296556375 0 0 0
143 72 1 22.50557961004922 23.070003713721587 19.025455020449915 0 0 0
144 72 2 23.49442038995078 22.929996286278413 18.974544979550085 0 0 0
145 73 1 25.043986784229286 11.494138523020869 21.062388162979207 0 0 0
146 73 2 24.956013215770714 10.505861476979131 20.937611837020793 0 0 0
147 74 1 6.907271472229444 15.38671867294745 20.696932205387526 0 0 0
148 74 2 7.092728527770556 14.61328132705255 21.303067794612474 0 0 0
149 75 1 16.522591091515444 19.130210960313867 20.928405028712017 0 0 0
150 75 2 17.477408908484556 18.869789039686133 21.071594971287983 0 0 0
151 76 1 14.544718168925007 20.907869402929038 20.814985386046537 0 0 0
152 76 2 15.455281831074993 21.092130597070962 21.185014613953463 0 0 0
153 77 1 22.700166573418684 22.627872245198663 20.852959698004174 0 0 0
154 77 2 23.299833426581316 23.372127754801337 21.147040301995826 0 0 0
155 78 1 14.683008618882738 9.182966430988005 23.34064607649125 0 0 0
156 78 2 15.316991381117262 8.817033569011995 22.65935392350875 0 0 0
157 79 1 6.500580929175656 10.980742509311785 23.01448242898626 0 0 0
158 79 2 7.499419070824344 11.019257490688215 22.98551757101374 0 0 0
159 80 1 4.618566594345927 14.933023098333996 23.31626357946238 0 0 0
160 80 2 5.381433405654073 15.066976901666004 22.68373642053762 0 0 0
161 81 1 0.5426228707212488 17.039797708939755 22.801953783232612 0 0 0
162 81 2 1.4573771292787512 16.960202291060245 23.198046216767388 0 0 0
163 82 1 6.611946330066139 16.7078201635559 22.881487163453222 0 0 0
164 82 2 7.388053669933861 17.2921798364441 23.118512836546778 0 0 0
165 83 1 2.952631166880671 24.594932751938426 22.710730716810897 0 0 0
166 83 2 3.047368833119329 25.405067248061574 23.289269283189103 0 0 0
167 84 1 22.911335892558554 9.255116173976708 24.579221657131576 0 0 0
168 84 2 23.088664107441446 8.744883826023292 25.420778342868424 0 0 0
169 85 1 18.91406916327524 14.76110348225016 25.4307485868889 0 0 0
170 85 2 19.08593083672476 15.23889651774984 24.5692514131111 0 0 0
171 86 1 13.153962622806716 16.871536161138 25.458031170209313 0 0 0
172 86 2 12.846037377193284 17.128463838862 24.541968829790687 0 0 0
173 87 1 25.45373680406868 19.029935194966143 25.20791054984267 0 0 0
174 87 2 24.54626319593132 18.970064805033857 24.79208945015733 0 0 0
175 88 1 25.44734105148218 20.942382271537035 25.21579198554531 0 0 0
176 88 2 24.55265894851782 21.057617728462965 24.78420801445469 0 0 0
177 89 1 26.99382179124135 5.474841655738061 26.843516033688843 0 0 0
178 89 2 27.00617820875865 4.525158344261939 27.156483966311157 0 0 0
179 90 1 19.19251710943011 6.560885231822681 27.141828709876577 0 0 0
180 90 2 18.80748289056989 7.439114768177319 26.858171290123423 0 0 0
181 91 1 10.731587195174262 8.731092820425932 27.32502845256854 0 0 0
182 91 2 11.268412804825738 9.268907179574068 26.67497154743146 0 0 0
183 92 1 0.7499772102649568 12.662466033892063 27.27121841076253 0 0 0
184 92 2 1.250022789735043 13.337533966107937 26.72878158923747 0 0 0
185 93 1 6.514537905880229 12.918967877929285 27.088092850819823 0 0 0
186 93 2 7.485462094119771 13.081032122070715 26.911907149180177 0 0 0
187 94 1 8.932292600947234 12.608085266171269 27.30301575787649 0 0 0
188 94 2 9.067707399052766 13.391914733828731 26.69698424212351 0 0 0
189 95 1 22.751156388376145 13.415843921863495 26.876911862459515 0 0 0
190 95 2 23.248843611623855 12.584156078136505 27.123088137540485 0 0 0
191 96 1 25.123642164621334 16.747131103000843 26.586756807608182 0 0 0
192 96 2 24.876357835378666 17.252868896999157 27.413243192391818 0 0 0
193 97 1 9.087150604181799 18.532309549344827 26.846148075875835 0 0 0
194 97 2 8.912849395818201 19.467690450655173 27.153851924124165 0 0 0
195 98 1 18.87282433486949 22.831166382958152 27.453124221329183 0 0 0
196 98 2 19.12717566513051 23.168833617041848 26.546875778670817 0 0 0
197 99 1 5.2050902861127035 24.819397647306218 27.418713224944806 0 0 0
198 99 2 4.7949097138872965 25.180602352693782 26.581286775055194 0 0 0
199 100 1 22.799591296492853 27.13950350570926 26.563680021711804 0 0 0
200 100 2 23.200408703507147 26.86049649429074 27.436319978288196 0 0 0
201 0 3 20 0 0 0 0 0
202 0 3 32 0 0 0 0 0
203 0 3 14 2 0 0 0 0
204 0 3 18 2 0 0 0 0
205 0 3 0 4 0 0 0 0
206 0 3 4 4 0 0 0 0
207 0 3 14 4 0 0 0 0
208 0 3 22 4 0 0 0 0
209 0 3 34 6 0 0 0 0
210 0 3 8 8 0 0 0 0
211 0 3 18 8 0 0 0 0
212 0 3 8 10 0 0 0 0
213 0 3 32 10 0 0 0 0
214 0 3 24 12 0 0 0 0
215 0 3 30 12 0 0 0 0
216 0 3 34 12 0 0 0 0
217 0 3 8 14 0 0 0 0
218 0 3 20 14 0 0 0 0
219 0 3 32 14 0 0 0 0
220 0 3 4 16 0 0 0 0
221 0 3 10 16 0 0 0 0
222 0 3 2 18 0 0 0 0
223 0 3 6 18 0 0 0 0
224 0 3 18 18 0 0 0 0
225 0 3 28 18 0 0 0 0
226 0 3 30 18 0 0 0 0
227 0 3 12 20 0 0 0 0
228 0 3 20 22 0 0 0 0
229 0 3 26 22 0 0 0 0
230 0 3 30 22 0 0 0 0
231 0 3 32 22 0 0 0 0
232 0 3 8 24 0 0 0 0
233 0 3 22 24 0 0 0 0
234 0 3 24 24 0 0 0 0
235 0 3 26 26 0 0 0 0
236 0 3 32 26 0 0 0 0
237 0 3 34 26 0 0 0 0
238 0 3 0 28 0 0 0 0
239 0 3 24 28 0 0 0 0
240 0 3 30 28 0 0 0 0
241 0 3 4 30 0 0 0 0
242 0 3 10 30 0 0 0 0
243 0 3 16 30 0 0 0 0
244 0 3 20 30 0 0 0 0
245 0 3 28 30 0 0 0 0
246 0 3 32 30 0 0 0 0
247 0 3 6 32 0 0 0 0
248 0 3 32 32 0 0 0 0
249 0 3 34 32 0 0 0 0
250 0 3 10 34 0 0 0 0
251 0 3 18 34 0 0 0 0
252 0 3 24 34 0 0 0 0
253 0 3 32 34 0 0 0 0
254 0 3 12 0 2 0 0 0
255 0 3 22 0 2 0 0 0
256 0 3 4 2 2 0 0 0
257 0 3 0 4 2 0 0 0
258 0 3 6 4 2 0 0 0
259 0 3 12 4 2 0 0 0
260 0 3 20 4 2 0 0 0
261 0 3 34 4 2 0 0 0
262 0 3 4 6 2 0 0 0
263 0 3 8 6 2 0 0 0
264 0 3 2 8 2 0 0 0
265 0 3 16 8 2 0 0 0
266 0 3 18 10 2 0 0 0
267 0 3 20 10 2 0 0 0
268 0 3 22 10 2 0 0 0
269 0 3 24 10 2 0 0 0
270 0 3 32 10 2 0 0 0
271 0 3 6 12 2 0 0 0
272 0 3 0 14 2 0 0 0
273 0 3 2 14 2 0 0 0
274 0 3 22 14 2 0 0 0
275 0 3 24 14 2 0 0 0
276 0 3 24 16 2 0 0 0
277 0 3 30 16 2 0 0 0
278 0 3 32 16 2 0 0 0
279 0 3 12 20 2 0 0 0
280 0 3 14 20 2 0 0 0
281 0 3 30 20 2 0 0 0
282 0 3 34 20 2 0 0 0
283 0 3 6 24 2 0 0 0
284 0 3 10 26 2 0 0 0
285 0 3 18 26 2 0 0 0
286 0 3 0 28 2 0 0 0
287 0 3 6 28 2 0 0 0
288 0 3 14 28 2 0 0 0
289 0 3 20 28 2 0 0 0
290 0 3 26 28 2 0 0 0
291 0 3 22 30 2 0 0 0
292 0 3 32 30 2 0 0 0
293 0 3 10 32 2 0 0 0
294 0 3 14 0 4 0 0 0
295 0 3 20 0 4 0 0 0
296 0 3 2 2 4 0 0 0
297 0 3 24 2 4 0 0 0
298 0 3 2 4 4 0 0 0
299 0 3 12 4 4 0 0 0
300 0 3 26 4 4 0 0 0
301 0 3 28 4 4 0 0 0
302 0 3 34 4 4 0 0 0
303 0 3 0 6 4 0 0 0
304 0 3 4 6 4 0 0 0
305 0 3 20 6 4 0 0 0
306 0 3 22 6 4 0 0 0
307 0 3 12 8 4 0 0 0
308 0 3 18 8 4 0 0 0
309 0 3 34 8 4 0 0 0
310 0 3 12 10 4 0 0 0
311 0 3 14 10 4 0 0 0
312 0 3 24 10 4 0 0 0
313 0 3 6 14 4 0 0 0
314 0 3 10 14 4 0 0 0
315 0 3 22 14 4 0 0 0
316 0 3 28 16 4 0 0 0
317 0 3 4 18 4 0 0 0
318 0 3 10 18 4 0 0 0
319 0 3 6 20 4 0 0 0
320 0 3 20 20 4 0 0 0
321 0 3 24 24 4 0 0 0
322 0 3 28 24 4 0 0 0
323 0 3 10 26 4 0 0 0
324 0 3 18 26 4 0 0 0
325 0 3 20 26 4 0 0 0
326 0 3 30 26 4 0 0 0
327 0 3 4 28 4 0 0 0
328 0 3 16 28 4 0 0 0
329 0 3 20 28 4 0 0 0
330 0 3 0 30 4 0 0 0
331 0 3 4 30 4 0 0 0
332 0 3 22 30 4 0 0 0
333 0 3 2 32 4 0 0 0
334 0 3 14 32 4 0 0 0
335 0 3 20 34 4 0 0 0
336 0 3 24 34 4 0 0 0
337 0 3 32 34 4 0 0 0
338 0 3 8 0 6 0 0 0
339 0 3 10 0 6 0 0 0
340 0 3 18 0 6 0 0 0
341 0 3 0 2 6 0 0 0
342 0 3 4 2 6 0 0 0
343 0 3 6 2 6 0 0 0
344 0 3 16 2 6 0 0 0
345 0 3 20 2 6 0 0 0
346 0 3 12 4 6 0 0 0
347 0 3 20 4 6 0 0 0
348 0 3 32 4 6 0 0 0
349 0 3 34 4 6 0 0 0
350 0 3 10 6 6 0 0 0
351 0 3 24 6 6 0 0 0
352 0 3 8 8 6 0 0 0
353 0 3 10 8 6 0 0 0
354 0 3 12 8 6 0 0 0
355 0 3 8 10 6 0 0 0
356 0 3 12 12 6 0 0 0
357 0 3 24 12 6 0 0 0
358 0 3 28 14 6 0 0 0
359 0 3 0 16 6 0 0 0
360 0 3 14 16 6 0 0 0
361 0 3 28 16 6 0 0 0
362 0 3 8 18 6 0 0 0
363 0 3 12 18 6 0 0 0
364 0 3 14 18 6 0 0 0
365 0 3 32 20 6 0 0 0
366 0 3 2 22 6 0 0 0
367 0 3 24 22 6 0 0 0
368 0 3 30 22 6 0 0 0
369 0 3 32 22 6 0 0 0
370 0 3 10 24 6 0 0 0
371 0 3 0 26 6 0 0 0
372 0 3 12 26 6 0 0 0
373 0 3 16 26 6 0 0 0
374 0 3 20 28 6 0 0 0
375 0 3 32 28 6 0 0 0
376 0 3 2 32 6 0 0 0
377 0 3 26 32 6 0 0 0
378 0 3 0 34 6 0 0 0
379 0 3 6 0 8 0 0 0
380 0 3 8 0 8 0 0 0
381 0 3 10 0 8 0 0 0
382 0 3 34 0 8 0 0 0
383 0 3 0 2 8 0 0 0
384 0 3 8 2 8 0 0 0
385 0 3 10 2 8 0 0 0
386 0 3 18 2 8 0 0 0
387 0 3 20 2 8 0 0 0
388 0 3 22 2 8 0 0 0
389 0 3 26 2 8 0 0 0
390 0 3 14 4 8 0 0 0
391 0 3 30 4 8 0 0 0
392 0 3 4 6 8 0 0 0
393 0 3 10 6 8 0 0 0
394 0 3 32 6 8 0 0 0
395 0 3 0 8 8 0 0 0
396 0 3 2 8 8 0 0 0
397 0 3 20 8 8 0 0 0
398 0 3 26 8 8 0 0 0
399 0 3 30 8 8 0 0 0
400 0 3 6 10 8 0 0 0
401 0 3 30 10 8 0 0 0
402 0 3 12 12 8 0 0 0
403 0 3 4 14 8 0 0 0
404 0 3 6 14 8 0 0 0
405 0 3 8 14 8 0 0 0
406 0 3 22 14 8 0 0 0
407 0 3 26 14 8 0 0 0
408 0 3 4 16 8 0 0 0
409 0 3 18 16 8 0 0 0
410 0 3 22 16 8 0 0 0
411 0 3 2 18 8 0 0 0
412 0 3 10 18 8 0 0 0
413 0 3 12 18 8 0 0 0
414 0 3 30 18 8 0 0 0
415 0 3 34 18 8 0 0 0
416 0 3 0 20 8 0 0 0
417 0 3 2 20 8 0 0 0
418 0 3 10 20 8 0 0 0
419 0 3 22 20 8 0 0 0
420 0 3 28 20 8 0 0 0
421 0 3 30 20 8 0 0 0
422 0 3 2 22 8 0 0 0
423 0 3 14 22 8 0 0 0
424 0 3 14 24 8 0 0 0
425 0 3 16 24 8 0 0 0
426 0 3 34 24 8 0 0 0
427 0 3 34 26 8 0 0 0
428 0 3 20 28 8 0 0 0
429 0 3 24 28 8 0 0 0
430 0 3 26 30 8 0 0 0
431 0 3 4 32 8 0 0 0
432 0 3 24 32 8 0 0 0
433 0 3 34 32 8 0 0 0
434 0 3 12 34 8 0 0 0
435 0 3 4 0 10 0 0 0
436 0 3 26 0 10 0 0 0
437 0 3 30 2 10 0 0 0
438 0 3 34 2 10 0 0 0
439 0 3 24 4 10 0 0 0
440 0 3 28 4 10 0 0 0
441 0 3 2 6 10 0 0 0
442 0 3 6 6 10 0 0 0
443 0 3 10 6 10 0 0 0
444 0 3 24 6 10 0 0 0
445 0 3 4 8 10 0 0 0
446 0 3 6 8 10 0 0 0
447 0 3 8 8 10 0 0 0
448 0 3 10 8 10 0 0 0
449 0 3 14 8 10 0 0 0
450 0 3 26 8 10 0 0 0
451 0 3 32 8 10 0 0 0
452 0 3 34 8 10 0 0 0
453 0 3 2 10 10 0 0 0
454 0 3 6 10 10 0 0 0
455 0 3 12 10 10 0 0 0
456 0 3 16 10 10 0 0 0
457 0 3 20 10 10 0 0 0
458 0 3 26 10 10 0 0 0
459 0 3 24 12 10 0 0 0
460 0 3 34 12 10 0 0 0
461 0 3 12 14 10 0 0 0
462 0 3 14 14 10 0 0 0
463 0 3 22 14 10 0 0 0
464 0 3 32 14 10 0 0 0
465 0 3 34 14 10 0 0 0
466 0 3 28 16 10 0 0 0
467 0 3 30 16 10 0 0 0
468 0 3 24 18 10 0 0 0
469 0 3 12 20 10 0 0 0
470 0 3 26 20 10 0 0 0
471 0 3 28 20 10 0 0 0
472 0 3 10 22 10 0 0 0
473 0 3 20 22 10 0 0 0
474 0 3 26 24 10 0 0 0
475 0 3 32 24 10 0 0 0
476 0 3 4 26 10 0 0 0
477 0 3 26 26 10 0 0 0
478 0 3 28 26 10 0 0 0
479 0 3 34 26 10 0 0 0
480 0 3 14 28 10 0 0 0
481 0 3 24 28 10 0 0 0
482 0 3 30 28 10 0 0 0
483 0 3 32 28 10 0 0 0
484 0 3 12 30 10 0 0 0
485 0 3 16 30 10 0 0 0
486 0 3 28 30 10 0 0 0
487 0 3 8 32 10 0 0 0
488 0 3 24 32 10 0 0 0
489 0 3 32 34 10 0 0 0
490 0 3 10 0 12 0 0 0
491 0 3 14 0 12 0 0 0
492 0 3 18 0 12 0 0 0
493 0 3 32 0 12 0 0 0
494 0 3 28 2 12 0 0 0
495 0 3 30 2 12 0 0 0
496 0 3 2 4 12 0 0 0
497 0 3 6 4 12 0 0 0
498 0 3 16 4 12 0 0 0
499 0 3 20 4 12 0 0 0
500 0 3 30 4 12 0 0 0
501 0 3 12 6 12 0 0 0
502 0 3 30 6 12 0 0 0
503 0 3 32 6 12 0 0 0
504 0 3 2 8 12 0 0 0
505 0 3 22 8 12 0 0 0
506 0 3 24 8 12 0 0 0
507 0 3 26 8 12 0 0 0
508 0 3 30 8 12 0 0 0
509 0 3 32 8 12 0 0 0
510 0 3 14 10 12 0 0 0
511 0 3 0 12 12 0 0 0
512 0 3 12 12 12 0 0 0
513 0 3 22 12 12 0 0 0
514 0 3 6 14 12 0 0 0
515 0 3 12 14 12 0 0 0
516 0 3 16 14 12 0 0 0
517 0 3 28 14 12 0 0 0
518 0 3 4 16 12 0 0 0
519 0 3 10 16 12 0 0 0
520 0 3 16 16 12 0 0 0
521 0 3 22 16 12 0 0 0
522 0 3 18 18 12 0 0 0
523 0 3 22 18 12 0 0 0
524 0 3 26 18 12 0 0 0
525 0 3 34 18 12 0 0 0
526 0 3 4 20 12 0 0 0
527 0 3 4 22 12 0 0 0
528 0 3 10 22 12 0 0 0
529 0 3 14 22 12 0 0 0
530 0 3 16 22 12 0 0 0
531 0 3 32 22 12 0 0 0
532 0 3 0 24 12 0 0 0
533 0 3 4 26 12 0 0 0
534 0 3 10 26 12 0 0 0
535 0 3 12 26 12 0 0 0
536 0 3 26 26 12 0 0 0
537 0 3 32 26 12 0 0 0
538 0 3 2 28 12 0 0 0
539 0 3 14 28 12 0 0 0
540 0 3 16 28 12 0 0 0
541 0 3 18 28 12 0 0 0
542 0 3 4 30 12 0 0 0
543 0 3 18 30 12 0 0 0
544 0 3 8 32 12 0 0 0
545 0 3 16 32 12 0 0 0
546 0 3 32 32 12 0 0 0
547 0 3 2 34 12 0 0 0
548 0 3 8 34 12 0 0 0
549 0 3 20 34 12 0 0 0
550 0 3 24 34 12 0 0 0
551 0 3 34 34 12 0 0 0
552 0 3 2 0 14 0 0 0
553 0 3 12 0 14 0 0 0
554 0 3 20 0 14 0 0 0
555 0 3 22 0 14 0 0 0
556 0 3 30 0 14 0 0 0
557 0 3 0 2 14 0 0 0
558 0 3 18 2 14 0 0 0
559 0 3 26 2 14 0 0 0
560 0 3 28 4 14 0 0 0
561 0 3 12 6 14 0 0 0
562 0 3 18 6 14 0 0 0
563 0 3 20 6 14 0 0 0
564 0 3 30 6 14 0 0 0
565 0 3 0 8 14 0 0 0
566 0 3 12 8 14 0 0 0
567 0 3 14 8 14 0 0 0
568 0 3 34 8 14 0 0 0
569 0 3 2 10 14 0 0 0
570 0 3 6 10 14 0 0 0
571 0 3 18 10 14 0 0 0
572 0 3 20 10 14 0 0 0
573 0 3 34 10 14 0 0 0
574 0 3 18 12 14 0 0 0
575 0 3 8 14 14 0 0 0
576 0 3 10 16 14 0 0 0
577 0 3 26 16 14 0 0 0
578 0 3 2 18 14 0 0 0
579 0 3 6 18 14 0 0 0
580 0 3 18 18 14 0 0 0
581 0 3 14 20 14 0 0 0
582 0 3 16 20 14 0 0 0
583 0 3 2 26 14 0 0 0
584 0 3 18 26 14 0 0 0
585 0 3 22 26 14 0 0 0
586 0 3 24 30 14 0 0 0
587 0 3 2 32 14 0 0 0
588 0 3 20 32 14 0 0 0
589 0 3 16 34 14 0 0 0
590 0 3 18 34 14 0 0 0
591 0 3 22 34 14 0 0 0
592 0 3 8 0 16 0 0 0
593 0 3 16 0 16 0 0 0
594 0 3 18 0 16 0 0 0
595 0 3 24 0 16 0 0 0
596 0 3 30 0 16 0 0 0
597 0 3 0 2 16 0 0 0
598 0 3 2 2 16 0 0 0
599 0 3 12 2 16 0 0 0
600 0 3 26 2 16 0 0 0
601 0 3 0 4 16 0 0 0
602 0 3 6 4 16 0 0 0
603 0 3 22 4 16 0 0 0
604 0 3 2 6 16 0 0 0
605 0 3 8 6 16 0 0 0
606 0 3 24 6 16 0 0 0
607 0 3 8 8 16 0 0 0
608 0 3 14 8 16 0 0 0
609 0 3 22 8 16 0 0 0
610 0 3 24 8 16 0 0 0
611 0 3 6 10 16 0 0 0
612 0 3 16 10 16 0 0 0
613 0 3 22 10 16 0 0 0
614 0 3 30 10 16 0 0 0
615 0 3 26 12 16 0 0 0
616 0 3 30 12 16 0 0 0
617 0 3 2 14 16 0 0 0
618 0 3 16 14 16 0 0 0
619 0 3 24 14 16 0 0 0
620 0 3 26 14 16 0 0 0
621 0 3 6 16 16 0 0 0
622 0 3 20 16 16 0 0 0
623 0 3 8 18 16 0 0 0
624 0 3 16 18 16 0 0 0
625 0 3 22 18 16 0 0 0
626 0 3 28 20 16 0 0 0
627 0 3 32 20 16 0 0 0
628 0 3 12 22 16 0 0 0
629 0 3 26 22 16 0 0 0
630 0 3 6 24 16 0 0 0
631 0 3 18 24 16 0 0 0
632 0 3 0 26 16 0 0 0
633 0 3 20 26 16 0 0 0
634 0 3 32 26 16 0 0 0
635 0 3 4 28 16 0 0 0
636 0 3 12 28 16 0 0 0
637 0 3 24 28 16 0 0 0
638 0 3 2 30 16 0 0 0
639 0 3 8 30 16 0 0 0
640 0 3 24 30 16 0 0 0
641 0 3 4 32 16 0 0 0
642 0 3 8 32 16 0 0 0
643 0 3 10 32 16 0 0 0
644 0 3 12 32 16 0 0 0
645 0 3 34 32 16 0 0 0
646 0 3 0 34 16 0 0 0
647 0 3 8 34 16 0 0 0
648 0 3 16 34 16 0 0 0
649 0 3 28 34 16 0 0 0
650 0 3 30 34 16 0 0 0
651 0 3 2 0 18 0 0 0
652 0 3 14 0 18 0 0 0
653 0 3 16 0 18 0 0 0
654 0 3 20 0 18 0 0 0
655 0 3 22 0 18 0 0 0
656 0 3 24 2 18 0 0 0
657 0 3 30 2 18 0 0 0
658 0 3 0 6 18 0 0 0
659 0 3 2 6 18 0 0 0
660 0 3 30 6 18 0 0 0
661 0 3 34 6 18 0 0 0
662 0 3 0 8 18 0 0 0
663 0 3 12 8 18 0 0 0
664 0 3 0 10 18 0 0 0
665 0 3 8 10 18 0 0 0
666 0 3 24 10 18 0 0 0
667 0 3 26 10 18 0 0 0
668 0 3 4 12 18 0 0 0
669 0 3 16 12 18 0 0 0
670 0 3 28 12 18 0 0 0
671 0 3 4 14 18 0 0 0
672 0 3 8 14 18 0 0 0
673 0 3 0 16 18 0 0 0
674 0 3 14 16 18 0 0 0
675 0 3 24 16 18 0 0 0
676 0 3 30 16 18 0 0 0
677 0 3 0 18 18 0 0 0
678 0 3 4 18 18 0 0 0
679 0 3 6 18 18 0 0 0
680 0 3 18 18 18 0 0 0
681 0 3 26 18 18 0 0 0
682 0 3 32 18 18 0 0 0
683 0 3 34 18 18 0 0 0
684 0 3 6 20 18 0 0 0
685 0 3 18 22 18 0 0 0
686 0 3 28 22 18 0 0 0
687 0 3 32 22 18 0 0 0
688 0 3 28 24 18 0 0 0
689 0 3 8 26 18 0 0 0
690 0 3 22 26 18 0 0 0
691 0 3 34 26 18 0 0 0
692 0 3 2 28 18 0 0 0
693 0 3 10 28 18 0 0 0
694 0 3 24 28 18 0 0 0
695 0 3 0 30 18 0 0 0
696 0 3 2 30 18 0 0 0
697 0 3 4 30 18 0 0 0
698 0 3 6 30 18 0 0 0
699 0 3 18 30 18 0 0 0
700 0 3 34 30 18 0 0 0
701 0 3 8 32 18 0 0 0
702 0 3 22 32 18 0 0 0
703 0 3 28 32 18 0 0 0
704 0 3 4 0 20 0 0 0
705 0 3 10 0 20 0 0 0
706 0 3 14 0 20 0 0 0
707 0 3 20 0 20 0 0 0
708 0 3 2 2 20 0 0 0
709 0 3 6 2 20 0 0 0
710 0 3 0 4 20 0 0 0
711 0 3 10 4 20 0 0 0
712 0 3 16 4 20 0 0 0
713 0 3 20 4 20 0 0 0
714 0 3 34 4 20 0 0 0
715 0 3 0 6 20 0 0 0
716 0 3 8 6 20 0 0 0
717 0 3 12 6 20 0 0 0
718 0 3 14 6 20 0 0 0
719 0 3 32 6 20 0 0 0
720 0 3 8 8 20 0 0 0
721 0 3 6 12 20 0 0 0
722 0 3 16 12 20 0 0 0
723 0 3 30 12 20 0 0 0
724 0 3 2 14 20 0 0 0
725 0 3 6 14 20 0 0 0
726 0 3 14 14 20 0 0 0
727 0 3 2 16 20 0 0 0
728 0 3 6 16 20 0 0 0
729 0 3 10 16 20 0 0 0
730 0 3 16 16 20 0 0 0
731 0 3 18 16 20 0 0 0
732 0 3 26 16 20 0 0 0
733 0 3 6 18 20 0 0 0
734 0 3 12 18 20 0 0 0
735 0 3 22 18 20 0 0 0
736 0 3 4 20 20 0 0 0
737 0 3 14 22 20 0 0 0
738 0 3 22 22 20 0 0 0
739 0 3 26 22 20 0 0 0
740 0 3 30 22 20 0 0 0
741 0 3 12 24 20 0 0 0
742 0 3 16 24 20 0 0 0
743 0 3 4 26 20 0 0 0
744 0 3 6 26 20 0 0 0
745 0 3 14 26 20 0 0 0
746 0 3 18 28 20 0 0 0
747 0 3 20 28 20 0 0 0
748 0 3 22 28 20 0 0 0
749 0 3 4 30 20 0 0 0
750 0 3 10 30 20 0 0 0
751 0 3 18 30 20 0 0 0
752 0 3 34 30 20 0 0 0
753 0 3 10 32 20 0 0 0
754 0 3 14 32 20 0 0 0
755 0 3 8 34 20 0 0 0
756 0 3 22 0 22 0 0 0
757 0 3 30 0 22 0 0 0
758 0 3 10 2 22 0 0 0
759 0 3 20 4 22 0 0 0
760 0 3 28 4 22 0 0 0
761 0 3 14 6 22 0 0 0
762 0 3 34 6 22 0 0 0
763 0 3 8 8 22 0 0 0
764 0 3 22 8 22 0 0 0
765 0 3 2 10 22 0 0 0
766 0 3 6 10 22 0 0 0
767 0 3 10 10 22 0 0 0
768 0 3 14 10 22 0 0 0
769 0 3 16 10 22 0 0 0
770 0 3 32 10 22 0 0 0
771 0 3 16 12 22 0 0 0
772 0 3 28 12 22 0 0 0
773 0 3 30 12 22 0 0 0
774 0 3 34 12 22 0 0 0
775 0 3 34 14 22 0 0 0
776 0 3 8 16 22 0 0 0
777 0 3 26 16 22 0 0 0
778 0 3 28 16 22 0 0 0
779 0 3 34 16 22 0 0 0
780 0 3 28 18 22 0 0 0
781 0 3 16 20 22 0 0 0
782 0 3 22 22 22 0 0 0
783 0 3 28 22 22 0 0 0
784 0 3 22 24 22 0 0 0
785 0 3 32 24 22 0 0 0
786 0 3 10 26 22 0 0 0
787 0 3 12 26 22 0 0 0
788 0 3 18 26 22 0 0 0
789 0 3 6 28 22 0 0 0
790 0 3 14 28 22 0 0 0
791 0 3 14 30 22 0 0 0
792 0 3 22 30 22 0 0 0
793 0 3 26 30 22 0 0 0
794 0 3 28 30 22 0 0 0
795 0 3 8 32 22 0 0 0
796 0 3 22 32 22 0 0 0
797 0 3 26 32 22 0 0 0
798 0 3 32 32 22 0 0 0
799 0 3 34 32 22 0 0 0
800 0 3 0 34 22 0 0 0
801 0 3 32 34 22 0 0 0
802 0 3 14 0 24 0 0 0
803 0 3 32 0 24 0 0 0
804 0 3 4 2 24 0 0 0
805 0 3 8 2 24 0 0 0
806 0 3 12 4 24 0 0 0
807 0 3 18 4 24 0 0 0
808 0 3 22 4 24 0 0 0
809 0 3 26 6 24 0 0 0
810 0 3 28 6 24 0 0 0
811 0 3 6 8 24 0 0 0
812 0 3 8 8 24 0 0 0
813 0 3 30 8 24 0 0 0
814 0 3 10 10 24 0 0 0
815 0 3 12 10 24 0 0 0
816 0 3 28 10 24 0 0 0
817 0 3 34 10 24 0 0 0
818 0 3 14 12 24 0 0 0
819 0 3 32 12 24 0 0 0
820 0 3 6 14 24 0 0 0
821 0 3 12 14 24 0 0 0
822 0 3 26 14 24 0 0 0
823 0 3 30 14 24 0 0 0
824 0 3 18 16 24 0 0 0
825 0 3 24 16 24 0 0 0
826 0 3 22 20 24 0 0 0
827 0 3 2 22 24 0 0 0
828 0 3 10 22 24 0 0 0
829 0 3 16 22 24 0 0 0
830 0 3 20 22 24 0 0 0
831 0 3 22 22 24 0 0 0
832 0 3 0 24 24 0 0 0
833 0 3 2 24 24 0 0 0
834 0 3 8 24 24 0 0 0
835 0 3 12 24 24 0 0 0
836 0 3 18 24 24 0 0 0
837 0 3 10 26 24 0 0 0
838 0 3 18 26 24 0 0 0
839 0 3 6 28 24 0 0 0
840 0 3 20 28 24 0 0 0
841 0 3 4 30 24 0 0 0
842 0 3 26 30 24 0 0 0
843 0 3 14 32 24 0 0 0
844 0 3 18 32 24 0 0 0
845 0 3 24 32 24 0 0 0
846 0 3 34 32 24 0 0 0
847 0 3 0 34 24 0 0 0
848 0 3 2 34 24 0 0 0
849 0 3 2 0 26 0 0 0
850 0 3 22 0 26 0 0 0
851 0 3 30 0 26 0 0 0
852 0 3 6 2 26 0 0 0
853 0 3 20 2 26 0 0 0
854 0 3 26 2 26 0 0 0
855 0 3 32 4 26 0 0 0
856 0 3 0 6 26 0 0 0
857 0 3 32 6 26 0 0 0
858 0 3 26 8 26 0 0 0
859 0 3 22 10 26 0 0 0
860 0 3 16 12 26 0 0 0
861 0 3 10 14 26 0 0 0
862 0 3 14 14 26 0 0 0
863 0 3 18 14 26 0 0 0
864 0 3 4 16 26 0 0 0
865 0 3 14 16 26 0 0 0
866 0 3 24 16 26 0 0 0
867 0 3 6 18 26 0 0 0
868 0 3 18 18 26 0 0 0
869 0 3 28 18 26 0 0 0
870 0 3 4 20 26 0 0 0
871 0 3 30 20 26 0 0 0
872 0 3 0 22 26 0 0 0
873 0 3 18 22 26 0 0 0
874 0 3 28 22 26 0 0 0
875 0 3 32 22 26 0 0 0
876 0 3 0 24 26 0 0 0
877 0 3 6 24 26 0 0 0
878 0 3 0 26 26 0 0 0
879 0 3 2 26 26 0 0 0
880 0 3 8 26 26 0 0 0
881 0 3 8 28 26 0 0 0
882 0 3 30 28 26 0 0 0
883 0 3 0 30 26 0 0 0
884 0 3 6 30 26 0 0 0
885 0 3 18 32 26 0 0 0
886 0 3 24 32 26 0 0 0
887 0 3 0 34 26 0 0 0
888 0 3 6 34 26 0 0 0
889 0 3 4 0 28 0 0 0
890 0 3 12 0 28 0 0 0
891 0 3 30 0 28 0 0 0
892 0 3 32 0 28 0 0 0
893 0 3 0 2 28 0 0 0
894 0 3 0 4 28 0 0 0
895 0 3 14 4 28 0 0 0
896 0 3 16 4 28 0 0 0
897 0 3 28 4 28 0 0 0
898 0 3 30 4 28 0 0 0
899 0 3 2 6 28 0 0 0
900 0 3 2 8 28 0 0 0
901 0 3 14 8 28 0 0 0
902 0 3 18 8 28 0 0 0
903 0 3 24 8 28 0 0 0
904 0 3 32 8 28 0 0 0
905 0 3 6 10 28 0 0 0
906 0 3 16 10 28 0 0 0
907 0 3 28 10 28 0 0 0
908 0 3 32 12 28 0 0 0
909 0 3 34 12 28 0 0 0
910 0 3 8 14 28 0 0 0
911 0 3 10 14 28 0 0 0
912 0 3 12 14 28 0 0 0
913 0 3 22 14 28 0 0 0
914 0 3 28 14 28 0 0 0
915 0 3 0 16 28 0 0 0
916 0 3 4 16 28 0 0 0