ITEM: TIMESTEP
0
ITEM: NUMBER OF ATOMS
1100
ITEM: BOX BOUNDS pp pp pp
0.0000000000000000e+00 3.6000000000000000e+01
0.0000000000000000e+00 3.6000000000000000e+01
0.0000000000000000e+00 3.6000000000000000e+01
ITEM: ATOMS id type xs ys zs
256 3 0.111111 0.0555556 0.0555556
2 2 0.295826 0.0181996 0.0252275
1 1 0.315285 0.037356 0.030328
254 3 0.333333 0 0.0555556
3 1 0.403891 0.029508 0.0329441
4 2 0.429442 0.0260475 0.0226115
203 3 0.388889 0.0555556 0
204 3 0.5 0.0555556 0
201 3 0.555556 0 0
255 3 0.611111 0 0.0555556
202 3 0.888889 0 0
5 1 0.0694701 0.139633 0.0281764
205 3 0 0.111111 0
257 3 0 0.111111 0.0555556
6 2 0.0971965 0.138145 0.0273792
206 3 0.111111 0.111111 0
258 3 0.166667 0.111111 0.0555556
259 3 0.333333 0.111111 0.0555556
207 3 0.388889 0.111111 0
24 2 0.473987 0.128837 0.0739131
208 3 0.611111 0.111111 0
260 3 0.555556 0.111111 0.0555556
261 3 0.944444 0.111111 0.0555556
264 3 0.0555556 0.222222 0.0555556
262 3 0.111111 0.166667 0.0555556
210 3 0.222222 0.222222 0
263 3 0.222222 0.166667 0.0555556
265 3 0.444444 0.222222 0.0555556
211 3 0.5 0.222222 0
209 3 0.944444 0.166667 0
7 1 0.126136 0.254062 0.0314881
8 2 0.151642 0.245938 0.0240674
212 3 0.222222 0.277778 0
12 2 0.301925 0.294685 0.0356235
266 3 0.5 0.277778 0.0555556
267 3 0.555556 0.277778 0.0555556
268 3 0.611111 0.277778 0.0555556
9 1 0.687944 0.262065 0.0255207
269 3 0.666667 0.277778 0.0555556
10 2 0.700945 0.237935 0.0300349
213 3 0.888889 0.277778 0
270 3 0.888889 0.277778 0.0555556
271 3 0.166667 0.333333 0.0555556
11 1 0.309186 0.316426 0.0199321
214 3 0.666667 0.333333 0
215 3 0.833333 0.333333 0
216 3 0.944444 0.333333 0
272 3 0 0.388889 0.0555556
273 3 0.0555556 0.388889 0.0555556
220 3 0.111111 0.444444 0
217 3 0.222222 0.388889 0
221 3 0.277778 0.444444 0
218 3 0.555556 0.388889 0
274 3 0.611111 0.388889 0.0555556
275 3 0.666667 0.388889 0.0555556
276 3 0.666667 0.444444 0.0555556
13 1 0.742864 0.425027 0.0362681
14 2 0.757136 0.408306 0.0192874
277 3 0.833333 0.444444 0.0555556
219 3 0.888889 0.388889 0
278 3 0.888889 0.444444 0.0555556
222 3 0.0555556 0.5 0
223 3 0.166667 0.5 0
15 1 0.469779 0.535811 0.0388412
16 2 0.474666 0.519745 0.0167143
224 3 0.5 0.5 0
28 2 0.691852 0.521003 0.0714891
225 3 0.777778 0.5 0
226 3 0.833333 0.5 0
227 3 0.333333 0.555556 0
279 3 0.333333 0.555556 0.0555556
280 3 0.388889 0.555556 0.0555556
228 3 0.555556 0.611111 0
229 3 0.722222 0.611111 0
230 3 0.833333 0.611111 0
281 3 0.833333 0.555556 0.0555556
231 3 0.888889 0.611111 0
282 3 0.944444 0.555556 0.0555556
232 3 0.222222 0.666667 0
283 3 0.166667 0.666667 0.0555556
17 1 0.350236 0.632283 0.0222091
18 2 0.371986 0.645494 0.0333464
20 2 0.517305 0.687017 0.0330755
233 3 0.611111 0.666667 0
234 3 0.666667 0.666667 0
284 3 0.277778 0.722222 0.0555556
33 1 0.360638 0.745498 0.070203
19 1 0.53825 0.701872 0.0224801
21 1 0.514157 0.75072 0.0251572
285 3 0.5 0.722222 0.0555556
22 2 0.541398 0.74928 0.0303984
235 3 0.722222 0.722222 0
236 3 0.888889 0.722222 0
237 3 0.944444 0.722222 0
238 3 0 0.777778 0
286 3 0 0.777778 0.0555556
241 3 0.111111 0.833333 0
287 3 0.166667 0.777778 0.0555556
242 3 0.277778 0.833333 0
243 3 0.444444 0.833333 0
288 3 0.388889 0.777778 0.0555556
244 3 0.555556 0.833333 0
289 3 0.555556 0.777778 0.0555556
291 3 0.611111 0.833333 0.0555556
239 3 0.666667 0.777778 0
290 3 0.722222 0.777778 0.0555556
240 3 0.833333 0.777778 0
245 3 0.777778 0.833333 0
246 3 0.888889 0.833333 0
292 3 0.888889 0.833333 0.0555556
247 3 0.166667 0.888889 0
293 3 0.277778 0.888889 0.0555556
248 3 0.888889 0.888889 0
249 3 0.944444 0.888889 0
250 3 0.277778 0.944444 0
251 3 0.5 0.944444 0
252 3 0.666667 0.944444 0
253 3 0.888889 0.944444 0
296 3 0.0555556 0.0555556 0.111111
294 3 0.388889 0 0.111111
295 3 0.555556 0 0.111111
297 3 0.666667 0.0555556 0.111111
35 1 0.695766 0.0331022 0.151648
36 2 0.693123 0.0224534 0.126129
298 3 0.0555556 0.111111 0.111111
39 1 0.297081 0.131355 0.130869
40 2 0.31403 0.146423 0.146909
299 3 0.333333 0.111111 0.111111
23 1 0.470457 0.148941 0.0927535
37 1 0.575693 0.0787243 0.128246
38 2 0.590974 0.0879424 0.149532
300 3 0.722222 0.111111 0.111111
301 3 0.777778 0.111111 0.111111
302 3 0.944444 0.111111 0.111111
303 3 0 0.166667 0.111111
304 3 0.111111 0.166667 0.111111
307 3 0.333333 0.222222 0.111111
308 3 0.5 0.222222 0.111111
305 3 0.555556 0.166667 0.111111
306 3 0.611111 0.166667 0.111111
309 3 0.944444 0.222222 0.111111
310 3 0.333333 0.277778 0.111111
311 3 0.388889 0.277778 0.111111
312 3 0.666667 0.277778 0.111111
25 1 0.126968 0.368227 0.0829434
26 2 0.15081 0.353995 0.0837233
313 3 0.166667 0.388889 0.111111
314 3 0.277778 0.388889 0.111111
315 3 0.611111 0.388889 0.111111
316 3 0.777778 0.444444 0.111111
317 3 0.111111 0.5 0.111111
318 3 0.277778 0.5 0.111111
41 1 0.681737 0.467401 0.141748
27 1 0.697037 0.534552 0.0951775
42 2 0.707152 0.477043 0.136029
319 3 0.166667 0.555556 0.111111
320 3 0.555556 0.555556 0.111111
43 1 0.745941 0.570171 0.137104
44 2 0.754059 0.596495 0.140674
321 3 0.666667 0.666667 0.111111
322 3 0.777778 0.666667 0.111111
323 3 0.277778 0.722222 0.111111
34 2 0.361584 0.754502 0.0964637
324 3 0.5 0.722222 0.111111
325 3 0.555556 0.722222 0.111111
29 1 0.680582 0.695095 0.0827811
30 2 0.708307 0.693794 0.0838856
31 1 0.736356 0.696071 0.0813116
32 2 0.763644 0.692818 0.085355
326 3 0.833333 0.722222 0.111111
330 3 0 0.833333 0.111111
327 3 0.111111 0.777778 0.111111
331 3 0.111111 0.833333 0.111111
328 3 0.444444 0.777778 0.111111
329 3 0.555556 0.777778 0.111111
332 3 0.611111 0.833333 0.111111
333 3 0.0555556 0.888889 0.111111
334 3 0.388889 0.888889 0.111111
335 3 0.555556 0.944444 0.111111
336 3 0.666667 0.944444 0.111111
337 3 0.888889 0.944444 0.111111
341 3 0 0.0555556 0.166667
383 3 0 0.0555556 0.222222
342 3 0.111111 0.0555556 0.166667
338 3 0.222222 0 0.166667
343 3 0.166667 0.0555556 0.166667
379 3 0.166667 0 0.222222
380 3 0.222222 0 0.222222
384 3 0.222222 0.0555556 0.222222
48 2 0.25258 0.0746982 0.205012
339 3 0.277778 0 0.166667
381 3 0.277778 0 0.222222
385 3 0.277778 0.0555556 0.222222
344 3 0.444444 0.0555556 0.166667
340 3 0.5 0 0.166667
386 3 0.5 0.0555556 0.222222
345 3 0.555556 0.0555556 0.166667
387 3 0.555556 0.0555556 0.222222
388 3 0.611111 0.0555556 0.222222
389 3 0.722222 0.0555556 0.222222
382 3 0.944444 0 0.222222
45 1 0.0139005 0.0828606 0.19476
46 2 0.041655 0.0838061 0.194129
47 1 0.24742 0.0919685 0.183877
346 3 0.333333 0.111111 0.166667
390 3 0.388889 0.111111 0.222222
347 3 0.555556 0.111111 0.166667
391 3 0.833333 0.111111 0.222222
348 3 0.888889 0.111111 0.166667
349 3 0.944444 0.111111 0.166667
395 3 0 0.222222 0.222222
396 3 0.0555556 0.222222 0.222222
392 3 0.111111 0.166667 0.222222
352 3 0.222222 0.222222 0.166667
350 3 0.277778 0.166667 0.166667
353 3 0.277778 0.222222 0.166667
393 3 0.277778 0.166667 0.222222
354 3 0.333333 0.222222 0.166667
397 3 0.555556 0.222222 0.222222
351 3 0.666667 0.166667 0.166667
398 3 0.722222 0.222222 0.222222
399 3 0.833333 0.222222 0.222222
394 3 0.888889 0.166667 0.222222
49 1 0.192251 0.236311 0.195282
50 2 0.196637 0.263689 0.193607
355 3 0.222222 0.277778 0.166667
400 3 0.166667 0.277778 0.222222
51 1 0.64684 0.243928 0.204079
52 2 0.630938 0.256072 0.18481
53 1 0.691666 0.252379 0.207843
54 2 0.697222 0.247621 0.181046
401 3 0.833333 0.277778 0.222222
356 3 0.333333 0.333333 0.166667
402 3 0.333333 0.333333 0.222222
55 1 0.526694 0.373847 0.199878
56 2 0.528861 0.348375 0.189011
357 3 0.666667 0.333333 0.166667
359 3 0 0.444444 0.166667
403 3 0.111111 0.388889 0.222222
408 3 0.111111 0.444444 0.222222
404 3 0.166667 0.388889 0.222222
405 3 0.222222 0.388889 0.222222
360 3 0.388889 0.444444 0.166667
409 3 0.5 0.444444 0.222222
406 3 0.611111 0.388889 0.222222
410 3 0.611111 0.444444 0.222222
407 3 0.722222 0.388889 0.222222
358 3 0.777778 0.388889 0.166667
361 3 0.777778 0.444444 0.166667
411 3 0.0555556 0.5 0.222222
362 3 0.222222 0.5 0.166667
412 3 0.277778 0.5 0.222222
363 3 0.333333 0.5 0.166667
413 3 0.333333 0.5 0.222222
364 3 0.388889 0.5 0.166667
414 3 0.833333 0.5 0.222222
415 3 0.944444 0.5 0.222222
366 3 0.0555556 0.611111 0.166667
416 3 0 0.555556 0.222222
417 3 0.0555556 0.555556 0.222222
422 3 0.0555556 0.611111 0.222222
418 3 0.277778 0.555556 0.222222
423 3 0.388889 0.611111 0.222222
419 3 0.611111 0.555556 0.222222
367 3 0.666667 0.611111 0.166667
368 3 0.833333 0.611111 0.166667
420 3 0.777778 0.555556 0.222222
421 3 0.833333 0.555556 0.222222
365 3 0.888889 0.555556 0.166667
369 3 0.888889 0.611111 0.166667
370 3 0.277778 0.666667 0.166667
424 3 0.388889 0.666667 0.222222
425 3 0.444444 0.666667 0.222222
57 1 0.466406 0.6859 0.203721
426 3 0.944444 0.666667 0.222222
371 3 0 0.722222 0.166667
372 3 0.333333 0.722222 0.166667
373 3 0.444444 0.722222 0.166667
58 2 0.478038 0.702989 0.185168
427 3 0.944444 0.722222 0.222222
374 3 0.555556 0.777778 0.166667
428 3 0.555556 0.777778 0.222222
429 3 0.666667 0.777778 0.222222
430 3 0.722222 0.833333 0.222222
375 3 0.888889 0.777778 0.166667
376 3 0.0555556 0.888889 0.166667
431 3 0.111111 0.888889 0.222222
432 3 0.666667 0.888889 0.222222
377 3 0.722222 0.888889 0.166667
433 3 0.944444 0.888889 0.222222
378 3 0 0.944444 0.166667
434 3 0.333333 0.944444 0.222222
435 3 0.111111 0 0.277778
436 3 0.722222 0 0.277778
437 3 0.833333 0.0555556 0.277778
438 3 0.944444 0.0555556 0.277778
63 1 0.0754929 0.143111 0.239341
64 2 0.0911738 0.134667 0.260659
59 1 0.236471 0.0851321 0.247423
60 2 0.263529 0.0815346 0.252577
61 1 0.685241 0.0783347 0.259122
75 1 0.639805 0.131245 0.293996
439 3 0.666667 0.111111 0.277778
62 2 0.703648 0.088332 0.240878
440 3 0.777778 0.111111 0.277778
441 3 0.0555556 0.166667 0.277778
77 1 0.0877907 0.195707 0.292462
445 3 0.111111 0.222222 0.277778
442 3 0.166667 0.166667 0.277778
446 3 0.166667 0.222222 0.277778
447 3 0.222222 0.222222 0.277778
79 1 0.236604 0.191582 0.303262
443 3 0.277778 0.166667 0.277778
448 3 0.277778 0.222222 0.277778
449 3 0.388889 0.222222 0.277778
65 1 0.625848 0.198646 0.252277
66 2 0.65193 0.190243 0.247723
444 3 0.666667 0.166667 0.277778
450 3 0.722222 0.222222 0.277778
451 3 0.888889 0.222222 0.277778
452 3 0.944444 0.222222 0.277778
453 3 0.0555556 0.277778 0.277778
454 3 0.166667 0.277778 0.277778
455 3 0.333333 0.277778 0.277778
456 3 0.444444 0.277778 0.277778
68 2 0.584485 0.292156 0.246533
457 3 0.555556 0.277778 0.277778
458 3 0.722222 0.277778 0.277778
67 1 0.582181 0.318955 0.253467
459 3 0.666667 0.333333 0.277778
81 1 0.699559 0.354229 0.29463
460 3 0.944444 0.333333 0.277778
461 3 0.333333 0.388889 0.277778
462 3 0.388889 0.388889 0.277778
463 3 0.611111 0.388889 0.277778
84 2 0.741667 0.426155 0.299773
466 3 0.777778 0.444444 0.277778
467 3 0.833333 0.444444 0.277778
464 3 0.888889 0.388889 0.277778
465 3 0.944444 0.388889 0.277778
468 3 0.666667 0.5 0.277778
87 1 0.138445 0.583096 0.291676
472 3 0.277778 0.611111 0.277778
85 1 0.353435 0.538922 0.302427
469 3 0.333333 0.555556 0.277778
473 3 0.555556 0.611111 0.277778
470 3 0.722222 0.555556 0.277778
471 3 0.777778 0.555556 0.277778
90 2 0.0160083 0.635946 0.298794
69 1 0.515556 0.642835 0.255289
70 2 0.539999 0.634943 0.244711
474 3 0.722222 0.666667 0.277778
475 3 0.888889 0.666667 0.277778
476 3 0.111111 0.722222 0.277778
71 1 0.347244 0.693879 0.250529
72 2 0.374978 0.69501 0.249471
73 1 0.683032 0.695328 0.242134
74 2 0.705857 0.69356 0.257866
477 3 0.722222 0.722222 0.277778
478 3 0.777778 0.722222 0.277778
479 3 0.944444 0.722222 0.277778
484 3 0.333333 0.833333 0.277778
480 3 0.388889 0.777778 0.277778
485 3 0.444444 0.833333 0.277778
481 3 0.666667 0.777778 0.277778
482 3 0.833333 0.777778 0.277778
486 3 0.777778 0.833333 0.277778
483 3 0.888889 0.777778 0.277778
487 3 0.222222 0.888889 0.277778
488 3 0.666667 0.888889 0.277778
489 3 0.888889 0.944444 0.277778
92 2 0.144122 0.0715982 0.355838
490 3 0.277778 0 0.333333
491 3 0.388889 0 0.333333
492 3 0.5 0 0.333333
494 3 0.777778 0.0555556 0.333333
495 3 0.833333 0.0555556 0.333333
493 3 0.888889 0 0.333333
496 3 0.0555556 0.111111 0.333333
91 1 0.133656 0.0950685 0.366384
497 3 0.166667 0.111111 0.333333
498 3 0.444444 0.111111 0.333333
499 3 0.555556 0.111111 0.333333
76 2 0.637973 0.146533 0.317115
500 3 0.833333 0.111111 0.333333
504 3 0.0555556 0.222222 0.333333
78 2 0.078876 0.193182 0.318649
80 2 0.263396 0.197307 0.307849
501 3 0.333333 0.166667 0.333333
505 3 0.611111 0.222222 0.333333
506 3 0.666667 0.222222 0.333333
507 3 0.722222 0.222222 0.333333
502 3 0.833333 0.166667 0.333333
508 3 0.833333 0.222222 0.333333
503 3 0.888889 0.166667 0.333333
509 3 0.888889 0.222222 0.333333
510 3 0.388889 0.277778 0.333333
511 3 0 0.333333 0.333333
512 3 0.333333 0.333333 0.333333
513 3 0.611111 0.333333 0.333333
82 2 0.68933 0.367994 0.316481
518 3 0.111111 0.444444 0.333333
514 3 0.166667 0.388889 0.333333
519 3 0.277778 0.444444 0.333333
515 3 0.333333 0.388889 0.333333
516 3 0.444444 0.388889 0.333333
520 3 0.444444 0.444444 0.333333
521 3 0.611111 0.444444 0.333333
93 1 0.644467 0.413987 0.348677
94 2 0.633311 0.419346 0.373545
83 1 0.758333 0.407179 0.311338
95 1 0.74545 0.429164 0.35711
96 2 0.75455 0.404169 0.365112
517 3 0.777778 0.388889 0.333333
98 2 0.294138 0.53269 0.354914
86 2 0.368787 0.516634 0.308684
97 1 0.316973 0.522866 0.367309
522 3 0.5 0.5 0.333333
523 3 0.611111 0.5 0.333333
524 3 0.722222 0.5 0.333333
525 3 0.944444 0.5 0.333333
88 2 0.139333 0.583571 0.319435
526 3 0.111111 0.555556 0.333333
527 3 0.111111 0.611111 0.333333
99 1 0.180742 0.581336 0.360038
100 2 0.208147 0.585331 0.362185
528 3 0.277778 0.611111 0.333333
529 3 0.388889 0.611111 0.333333
530 3 0.444444 0.611111 0.333333
531 3 0.888889 0.611111 0.333333
89 1 0.0395473 0.641831 0.312317
101 1 0.0401356 0.632877 0.359101
102 2 0.0154199 0.644901 0.363121
532 3 0 0.666667 0.333333
533 3 0.111111 0.722222 0.333333
534 3 0.277778 0.722222 0.333333
535 3 0.333333 0.722222 0.333333
103 1 0.415962 0.737351 0.355418
104 2 0.417371 0.762649 0.366804
536 3 0.722222 0.722222 0.333333
537 3 0.888889 0.722222 0.333333
538 3 0.0555556 0.777778 0.333333
542 3 0.111111 0.833333 0.333333
539 3 0.388889 0.777778 0.333333
540 3 0.444444 0.777778 0.333333
541 3 0.5 0.777778 0.333333
543 3 0.5 0.833333 0.333333
544 3 0.222222 0.888889 0.333333
545 3 0.444444 0.888889 0.333333
546 3 0.888889 0.888889 0.333333
547 3 0.0555556 0.944444 0.333333
548 3 0.222222 0.944444 0.333333
549 3 0.555556 0.944444 0.333333
550 3 0.666667 0.944444 0.333333
551 3 0.944444 0.944444 0.333333
552 3 0.0555556 0 0.388889
557 3 0 0.0555556 0.388889
597 3 0 0.0555556 0.444444
598 3 0.0555556 0.0555556 0.444444
592 3 0.222222 0 0.444444
553 3 0.333333 0 0.388889
599 3 0.333333 0.0555556 0.444444
593 3 0.444444 0 0.444444
105 1 0.516829 0.0192348 0.416895
558 3 0.5 0.0555556 0.388889
594 3 0.5 0 0.444444
106 2 0.538726 0.0363207 0.416439
554 3 0.555556 0 0.388889
555 3 0.611111 0 0.388889
595 3 0.666667 0 0.444444
559 3 0.722222 0.0555556 0.388889
600 3 0.722222 0.0555556 0.444444
556 3 0.833333 0 0.388889
596 3 0.833333 0 0.444444
107 1 0.070677 0.144166 0.418874
601 3 0 0.111111 0.444444
108 2 0.0959897 0.133612 0.41446
602 3 0.166667 0.111111 0.444444
603 3 0.611111 0.111111 0.444444
560 3 0.777778 0.111111 0.388889
565 3 0 0.222222 0.388889
604 3 0.0555556 0.166667 0.444444
605 3 0.222222 0.166667 0.444444
607 3 0.222222 0.222222 0.444444
561 3 0.333333 0.166667 0.388889
566 3 0.333333 0.222222 0.388889
567 3 0.388889 0.222222 0.388889
608 3 0.388889 0.222222 0.444444
562 3 0.5 0.166667 0.388889
563 3 0.555556 0.166667 0.388889
609 3 0.611111 0.222222 0.444444
606 3 0.666667 0.166667 0.444444
610 3 0.666667 0.222222 0.444444
564 3 0.833333 0.166667 0.388889
568 3 0.944444 0.222222 0.388889
569 3 0.0555556 0.277778 0.388889
570 3 0.166667 0.277778 0.388889
611 3 0.166667 0.277778 0.444444
612 3 0.444444 0.277778 0.444444
571 3 0.5 0.277778 0.388889
572 3 0.555556 0.277778 0.388889
613 3 0.611111 0.277778 0.444444
109 1 0.690159 0.29638 0.407162
614 3 0.833333 0.277778 0.444444
573 3 0.944444 0.277778 0.388889
111 1 0.249973 0.349068 0.423585
112 2 0.250027 0.373154 0.409749
574 3 0.5 0.333333 0.388889
110 2 0.69873 0.314731 0.426172
615 3 0.722222 0.333333 0.444444
616 3 0.833333 0.333333 0.444444
617 3 0.0555556 0.388889 0.444444
575 3 0.222222 0.388889 0.388889
621 3 0.166667 0.444444 0.444444
576 3 0.277778 0.444444 0.388889
618 3 0.444444 0.388889 0.444444
622 3 0.555556 0.444444 0.444444
619 3 0.666667 0.388889 0.444444
577 3 0.722222 0.444444 0.388889
620 3 0.722222 0.388889 0.444444
578 3 0.0555556 0.5 0.388889
126 2 0.0825933 0.469685 0.458587
579 3 0.166667 0.5 0.388889
623 3 0.222222 0.5 0.444444
624 3 0.444444 0.5 0.444444
580 3 0.5 0.5 0.388889
625 3 0.611111 0.5 0.444444
628 3 0.333333 0.611111 0.444444
581 3 0.388889 0.555556 0.388889
582 3 0.444444 0.555556 0.388889
113 1 0.523038 0.579553 0.429162
114 2 0.532518 0.587114 0.404171
629 3 0.722222 0.611111 0.444444
626 3 0.777778 0.555556 0.444444
627 3 0.888889 0.555556 0.444444
132 2 0.193366 0.643992 0.45935
630 3 0.166667 0.666667 0.444444
631 3 0.5 0.666667 0.444444
115 1 0.593065 0.686738 0.422896
583 3 0.0555556 0.722222 0.388889
632 3 0 0.722222 0.444444
136 2 0.199333 0.742978 0.461281
584 3 0.5 0.722222 0.388889
116 2 0.573601 0.702151 0.410437
585 3 0.611111 0.722222 0.388889
633 3 0.555556 0.722222 0.444444
634 3 0.888889 0.722222 0.444444
638 3 0.0555556 0.833333 0.444444
635 3 0.111111 0.777778 0.444444
639 3 0.222222 0.833333 0.444444
636 3 0.333333 0.777778 0.444444
586 3 0.666667 0.833333 0.388889
637 3 0.666667 0.777778 0.444444
640 3 0.666667 0.833333 0.444444
587 3 0.0555556 0.888889 0.388889
641 3 0.111111 0.888889 0.444444
642 3 0.222222 0.888889 0.444444
643 3 0.277778 0.888889 0.444444
644 3 0.333333 0.888889 0.444444
588 3 0.555556 0.888889 0.388889
645 3 0.944444 0.888889 0.444444
646 3 0 0.944444 0.444444
647 3 0.222222 0.944444 0.444444
589 3 0.444444 0.944444 0.388889
648 3 0.444444 0.944444 0.444444
590 3 0.5 0.944444 0.388889
591 3 0.611111 0.944444 0.388889
649 3 0.777778 0.944444 0.444444
650 3 0.833333 0.944444 0.444444
651 3 0.0555556 0 0.5
117 1 0.0895787 0.0166026 0.477609
118 2 0.077088 0.0389529 0.466836
138 2 0.365733 0.0707867 0.52402
652 3 0.388889 0 0.5
653 3 0.444444 0 0.5
654 3 0.555556 0 0.5
655 3 0.611111 0 0.5
656 3 0.666667 0.0555556 0.5
657 3 0.833333 0.0555556 0.5
139 1 0.293337 0.141545 0.521731
137 1 0.356489 0.0958799 0.531536
140 2 0.317774 0.136232 0.533824
658 3 0 0.166667 0.5
659 3 0.0555556 0.166667 0.5
662 3 0 0.222222 0.5
663 3 0.333333 0.222222 0.5
660 3 0.833333 0.166667 0.5
661 3 0.944444 0.166667 0.5
664 3 0 0.277778 0.5
665 3 0.222222 0.277778 0.5
119 1 0.41244 0.241037 0.481954
120 2 0.420893 0.258963 0.46249
141 1 0.403271 0.306841 0.531215
142 2 0.430062 0.30427 0.52434
121 1 0.683749 0.249887 0.481082
666 3 0.666667 0.277778 0.5
122 2 0.70514 0.250113 0.463362
667 3 0.722222 0.277778 0.5
668 3 0.111111 0.333333 0.5
669 3 0.444444 0.333333 0.5
670 3 0.777778 0.333333 0.5
123 1 0.0157663 0.412562 0.47786
124 2 0.0397892 0.420771 0.466585
673 3 0 0.444444 0.5
671 3 0.111111 0.388889 0.5
672 3 0.222222 0.388889 0.5
127 1 0.417584 0.458365 0.472434
674 3 0.388889 0.444444 0.5
675 3 0.666667 0.444444 0.5
676 3 0.833333 0.444444 0.5
677 3 0 0.5 0.5
125 1 0.0840733 0.47476 0.485857
678 3 0.111111 0.5 0.5
679 3 0.166667 0.5 0.5
129 1 0.37009 0.534441 0.480461
130 2 0.352132 0.521114 0.463984
128 2 0.415749 0.486079 0.472011
680 3 0.5 0.5 0.5
681 3 0.722222 0.5 0.5
682 3 0.888889 0.5 0.5
683 3 0.944444 0.5 0.5
684 3 0.166667 0.555556 0.5
685 3 0.5 0.611111 0.5
686 3 0.777778 0.611111 0.5
687 3 0.888889 0.611111 0.5
131 1 0.195523 0.633786 0.485094
133 1 0.688381 0.630007 0.481011
143 1 0.625155 0.640833 0.528485
144 2 0.652623 0.636944 0.527071
134 2 0.700508 0.647771 0.463433
688 3 0.777778 0.666667 0.5
135 1 0.189556 0.757022 0.483163
689 3 0.222222 0.722222 0.5
690 3 0.611111 0.722222 0.5
691 3 0.944444 0.722222 0.5
692 3 0.0555556 0.777778 0.5
695 3 0 0.833333 0.5
696 3 0.0555556 0.833333 0.5
697 3 0.111111 0.833333 0.5
698 3 0.166667 0.833333 0.5
693 3 0.277778 0.777778 0.5
699 3 0.5 0.833333 0.5
694 3 0.666667 0.777778 0.5
700 3 0.944444 0.833333 0.5
701 3 0.222222 0.888889 0.5
702 3 0.611111 0.888889 0.5
703 3 0.777778 0.888889 0.5
708 3 0.0555556 0.0555556 0.555556
704 3 0.111111 0 0.555556
709 3 0.166667 0.0555556 0.555556
705 3 0.277778 0 0.555556
758 3 0.277778 0.0555556 0.611111
706 3 0.388889 0 0.555556
707 3 0.555556 0 0.555556
756 3 0.611111 0 0.611111
757 3 0.833333 0 0.611111
710 3 0 0.111111 0.555556
711 3 0.277778 0.111111 0.555556
712 3 0.444444 0.111111 0.555556
713 3 0.555556 0.111111 0.555556
759 3 0.555556 0.111111 0.611111
760 3 0.777778 0.111111 0.611111
714 3 0.944444 0.111111 0.555556
715 3 0 0.166667 0.555556
716 3 0.222222 0.166667 0.555556
720 3 0.222222 0.222222 0.555556
763 3 0.222222 0.222222 0.611111
717 3 0.333333 0.166667 0.555556
718 3 0.388889 0.166667 0.555556
761 3 0.388889 0.166667 0.611111
764 3 0.611111 0.222222 0.611111
719 3 0.888889 0.166667 0.555556
762 3 0.944444 0.166667 0.611111
765 3 0.0555556 0.277778 0.611111
766 3 0.166667 0.277778 0.611111
767 3 0.277778 0.277778 0.611111
768 3 0.388889 0.277778 0.611111
769 3 0.444444 0.277778 0.611111
146 2 0.693223 0.291829 0.5816
770 3 0.888889 0.277778 0.611111
721 3 0.166667 0.333333 0.555556
722 3 0.444444 0.333333 0.555556
771 3 0.444444 0.333333 0.611111
145 1 0.695666 0.319282 0.585066
723 3 0.833333 0.333333 0.555556
772 3 0.777778 0.333333 0.611111
773 3 0.833333 0.333333 0.611111
774 3 0.944444 0.333333 0.611111
724 3 0.0555556 0.388889 0.555556
727 3 0.0555556 0.444444 0.555556
147 1 0.191869 0.427409 0.574915
148 2 0.19702 0.405924 0.591752
725 3 0.166667 0.388889 0.555556
728 3 0.166667 0.444444 0.555556
776 3 0.222222 0.444444 0.611111
729 3 0.277778 0.444444 0.555556
726 3 0.388889 0.388889 0.555556
730 3 0.444444 0.444444 0.555556
731 3 0.5 0.444444 0.555556
732 3 0.722222 0.444444 0.555556
777 3 0.722222 0.444444 0.611111
778 3 0.777778 0.444444 0.611111
775 3 0.944444 0.388889 0.611111
779 3 0.944444 0.444444 0.611111
733 3 0.166667 0.5 0.555556
734 3 0.333333 0.5 0.555556
149 1 0.458961 0.531395 0.581345
150 2 0.485484 0.524161 0.585322
735 3 0.611111 0.5 0.555556
780 3 0.777778 0.5 0.611111
736 3 0.111111 0.555556 0.555556
151 1 0.40402 0.580774 0.578194
152 2 0.429313 0.585893 0.588473
737 3 0.388889 0.611111 0.555556
781 3 0.444444 0.555556 0.611111
738 3 0.611111 0.611111 0.555556
782 3 0.611111 0.611111 0.611111
739 3 0.722222 0.611111 0.555556
740 3 0.833333 0.611111 0.555556
783 3 0.777778 0.611111 0.611111
741 3 0.333333 0.666667 0.555556
742 3 0.444444 0.666667 0.555556
784 3 0.611111 0.666667 0.611111
153 1 0.63056 0.628552 0.579249
154 2 0.647218 0.649226 0.587418
785 3 0.888889 0.666667 0.611111
743 3 0.111111 0.722222 0.555556
744 3 0.166667 0.722222 0.555556
786 3 0.277778 0.722222 0.611111
787 3 0.333333 0.722222 0.611111
745 3 0.388889 0.722222 0.555556
788 3 0.5 0.722222 0.611111
749 3 0.111111 0.833333 0.555556
789 3 0.166667 0.777778 0.611111
750 3 0.277778 0.833333 0.555556
790 3 0.388889 0.777778 0.611111
791 3 0.388889 0.833333 0.611111
746 3 0.5 0.777778 0.555556
751 3 0.5 0.833333 0.555556
747 3 0.555556 0.777778 0.555556
748 3 0.611111 0.777778 0.555556
792 3 0.611111 0.833333 0.611111
793 3 0.722222 0.833333 0.611111
794 3 0.777778 0.833333 0.611111
752 3 0.944444 0.833333 0.555556
795 3 0.222222 0.888889 0.611111
753 3 0.277778 0.888889 0.555556
754 3 0.388889 0.888889 0.555556
796 3 0.611111 0.888889 0.611111
797 3 0.722222 0.888889 0.611111
798 3 0.888889 0.888889 0.611111
799 3 0.944444 0.888889 0.611111
800 3 0 0.944444 0.611111
755 3 0.222222 0.944444 0.555556
801 3 0.888889 0.944444 0.611111
804 3 0.111111 0.0555556 0.666667
805 3 0.222222 0.0555556 0.666667
802 3 0.388889 0 0.666667
803 3 0.888889 0 0.666667
806 3 0.333333 0.111111 0.666667
807 3 0.5 0.111111 0.666667
808 3 0.611111 0.111111 0.666667
811 3 0.166667 0.222222 0.666667
812 3 0.222222 0.222222 0.666667
809 3 0.722222 0.166667 0.666667
810 3 0.777778 0.166667 0.666667
813 3 0.833333 0.222222 0.666667
157 1 0.180572 0.305021 0.639291
158 2 0.208317 0.30609 0.638487
814 3 0.277778 0.277778 0.666667
815 3 0.333333 0.277778 0.666667
155 1 0.407861 0.255082 0.648351
156 2 0.425472 0.244918 0.629426
167 1 0.636426 0.257087 0.682756
816 3 0.777778 0.277778 0.666667
817 3 0.944444 0.277778 0.666667
818 3 0.388889 0.333333 0.666667
819 3 0.888889 0.333333 0.666667
159 1 0.128294 0.414806 0.647674
160 2 0.149484 0.418527 0.630104
820 3 0.166667 0.388889 0.666667
821 3 0.333333 0.388889 0.666667
170 2 0.530165 0.423303 0.682479
824 3 0.5 0.444444 0.666667
825 3 0.666667 0.444444 0.666667
822 3 0.722222 0.388889 0.666667
823 3 0.833333 0.388889 0.666667
161 1 0.0150729 0.473328 0.633388
162 2 0.0404827 0.471117 0.64439
163 1 0.183665 0.464106 0.635597
164 2 0.205224 0.480338 0.642181
172 2 0.356834 0.475791 0.681721
174 2 0.681841 0.526946 0.688669
827 3 0.0555556 0.611111 0.666667
828 3 0.277778 0.611111 0.666667
829 3 0.444444 0.611111 0.666667
826 3 0.611111 0.555556 0.666667
830 3 0.555556 0.611111 0.666667
831 3 0.611111 0.611111 0.666667
176 2 0.682018 0.584934 0.68845
832 3 0 0.666667 0.666667
833 3 0.0555556 0.666667 0.666667
165 1 0.0820175 0.683193 0.630854
834 3 0.222222 0.666667 0.666667
835 3 0.333333 0.666667 0.666667
836 3 0.5 0.666667 0.666667
166 2 0.0846491 0.705696 0.646924
837 3 0.277778 0.722222 0.666667
838 3 0.5 0.722222 0.666667
841 3 0.111111 0.833333 0.666667
839 3 0.166667 0.777778 0.666667
840 3 0.555556 0.777778 0.666667
842 3 0.722222 0.833333 0.666667
843 3 0.388889 0.888889 0.666667
844 3 0.5 0.888889 0.666667
845 3 0.666667 0.888889 0.666667
846 3 0.944444 0.888889 0.666667
847 3 0 0.944444 0.666667
848 3 0.0555556 0.944444 0.666667
849 3 0.0555556 0 0.722222
852 3 0.166667 0.0555556 0.722222
850 3 0.611111 0 0.722222
853 3 0.555556 0.0555556 0.722222
854 3 0.722222 0.0555556 0.722222
851 3 0.833333 0 0.722222
177 1 0.749828 0.152079 0.745653
178 2 0.750172 0.125699 0.754347
855 3 0.888889 0.111111 0.722222
856 3 0 0.166667 0.722222
179 1 0.533125 0.182247 0.75394
180 2 0.52243 0.206642 0.74606
858 3 0.722222 0.222222 0.722222
857 3 0.888889 0.166667 0.722222
181 1 0.2981 0.24253 0.759029
182 2 0.313011 0.25747 0.740971
859 3 0.611111 0.277778 0.722222
168 2 0.641352 0.242913 0.706133
183 1 0.0208327 0.351735 0.757534
184 2 0.0347229 0.370487 0.742466
185 1 0.180959 0.35886 0.752447
186 2 0.20793 0.363362 0.747553
187 1 0.248119 0.350225 0.758417
188 2 0.251881 0.371998 0.741583
860 3 0.444444 0.333333 0.722222
189 1 0.631977 0.372662 0.746581
190 2 0.645801 0.34956 0.753419
864 3 0.111111 0.444444 0.722222
861 3 0.277778 0.388889 0.722222
862 3 0.388889 0.388889 0.722222
865 3 0.388889 0.444444 0.722222
169 1 0.525391 0.410031 0.70641
863 3 0.5 0.388889 0.722222
866 3 0.666667 0.444444 0.722222
867 3 0.166667 0.5 0.722222
193 1 0.252421 0.514786 0.745726
171 1 0.365388 0.468654 0.707168
868 3 0.5 0.5 0.722222
192 2 0.69101 0.479246 0.761479
173 1 0.707048 0.528609 0.70022
191 1 0.697879 0.465198 0.738521
869 3 0.777778 0.5 0.722222
872 3 0 0.611111 0.722222
870 3 0.111111 0.555556 0.722222
194 2 0.247579 0.540769 0.754274
873 3 0.5 0.611111 0.722222
175 1 0.706871 0.581733 0.700439
871 3 0.833333 0.555556 0.722222
874 3 0.777778 0.611111 0.722222
875 3 0.888889 0.611111 0.722222
876 3 0 0.666667 0.722222
197 1 0.144586 0.689428 0.761631
877 3 0.166667 0.666667 0.722222
195 1 0.524245 0.634199 0.762587
196 2 0.53131 0.643579 0.737413
878 3 0 0.722222 0.722222
879 3 0.0555556 0.722222 0.722222
198 2 0.133192 0.699461 0.738369
880 3 0.222222 0.722222 0.722222
199 1 0.633322 0.753875 0.73788
200 2 0.644456 0.746125 0.76212
883 3 0 0.833333 0.722222
881 3 0.222222 0.777778 0.722222
884 3 0.166667 0.833333 0.722222
882 3 0.833333 0.777778 0.722222
885 3 0.5 0.888889 0.722222
886 3 0.666667 0.888889 0.722222
887 3 0 0.944444 0.722222
888 3 0.166667 0.944444 0.722222
893 3 0 0.0555556 0.777778
889 3 0.111111 0 0.777778
945 3 0.166667 0.0555556 0.833333
946 3 0.222222 0.0555556 0.833333
944 3 0.277778 0 0.833333
890 3 0.333333 0 0.777778
891 3 0.833333 0 0.777778
892 3 0.888889 0 0.777778
894 3 0 0.111111 0.777778
947 3 0 0.111111 0.833333
948 3 0.166667 0.111111 0.833333
949 3 0.222222 0.111111 0.833333
950 3 0.277778 0.111111 0.833333
895 3 0.388889 0.111111 0.777778
896 3 0.444444 0.111111 0.777778
951 3 0.5 0.111111 0.833333
897 3 0.777778 0.111111 0.777778
898 3 0.833333 0.111111 0.777778
952 3 0.888889 0.111111 0.833333
953 3 0.944444 0.111111 0.833333
899 3 0.0555556 0.166667 0.777778
900 3 0.0555556 0.222222 0.777778
954 3 0.111111 0.166667 0.833333
955 3 0.333333 0.222222 0.833333
901 3 0.388889 0.222222 0.777778
956 3 0.444444 0.222222 0.833333
902 3 0.5 0.222222 0.777778
957 3 0.5 0.222222 0.833333
903 3 0.666667 0.222222 0.777778
904 3 0.888889 0.222222 0.777778
905 3 0.166667 0.277778 0.777778
958 3 0.333333 0.277778 0.833333
906 3 0.444444 0.277778 0.777778
959 3 0.555556 0.277778 0.833333
907 3 0.777778 0.277778 0.777778
960 3 0.777778 0.277778 0.833333
961 3 0.666667 0.333333 0.833333
908 3 0.888889 0.333333 0.777778
909 3 0.944444 0.333333 0.777778
915 3 0 0.444444 0.777778
916 3 0.111111 0.444444 0.777778
910 3 0.222222 0.388889 0.777778
962 3 0.222222 0.388889 0.833333
911 3 0.277778 0.388889 0.777778
963 3 0.277778 0.388889 0.833333
912 3 0.333333 0.388889 0.777778
964 3 0.333333 0.388889 0.833333
917 3 0.388889 0.444444 0.777778
965 3 0.388889 0.388889 0.833333
913 3 0.611111 0.388889 0.777778
966 3 0.555556 0.388889 0.833333
918 3 0.666667 0.444444 0.777778
919 3 0.722222 0.444444 0.777778
914 3 0.777778 0.388889 0.777778
967 3 0.888889 0.444444 0.833333
968 3 0.944444 0.444444 0.833333
920 3 0.277778 0.5 0.777778
921 3 0.444444 0.5 0.777778
969 3 0.388889 0.5 0.833333
970 3 0.444444 0.5 0.833333
922 3 0.5 0.5 0.777778
923 3 0.611111 0.5 0.777778
971 3 0.777778 0.5 0.833333
972 3 0.944444 0.5 0.833333
924 3 0.111111 0.555556 0.777778