ITEM: TIMESTEP
0
ITEM: NUMBER OF ATOMS
1100
ITEM: BOX BOUNDS pp pp pp
0.0000000000000000e+00 3.6000000000000000e+01
0.0000000000000000e+00 3.6000000000000000e+01
0.0000000000000000e+00 3.6000000000000000e+01
ITEM: ATOMS id type xs ys zs
201 3 0.0555556 0.0555556 0
211 3 0 0 0.0555556
212 3 0.222222 0.0555556 0.0555556
1 1 0.315285 0.037356 0.030328
2 2 0.295826 0.0181996 0.0252275
3 1 0.403891 0.029508 0.0329441
202 3 0.388889 0.0555556 0
4 2 0.429442 0.0260475 0.0226115
203 3 0.388889 0.111111 0
213 3 0.388889 0.111111 0.0555556
204 3 0 0.166667 0
205 3 0 0.222222 0
5 1 0.125026 0.195189 0.0281764
6 2 0.152752 0.1937 0.0273792
206 3 0.111111 0.222222 0
14 2 0.20158 0.186084 0.074843
214 3 0.166667 0.222222 0.0555556
207 3 0.388889 0.222222 0
215 3 0.333333 0.222222 0.0555556
216 3 0.444444 0.222222 0.0555556
208 3 0.111111 0.277778 0
217 3 0.222222 0.277778 0.0555556
16 2 0.474666 0.297523 0.0722699
218 3 0.0555556 0.333333 0.0555556
220 3 0.111111 0.388889 0.0555556
7 1 0.237247 0.365173 0.0314881
8 2 0.262753 0.357049 0.0240674
10 2 0.312056 0.404602 0.0300349
221 3 0.277778 0.388889 0.0555556
219 3 0.388889 0.333333 0.0555556
209 3 0.444444 0.388889 0
11 1 0.198075 0.483093 0.0199321
12 2 0.190814 0.461352 0.0356235
210 3 0.222222 0.444444 0
9 1 0.299055 0.428731 0.0255207
17 1 0.405792 0.465617 0.0777647
222 3 0.0555556 0 0.111111
224 3 0 0.0555556 0.111111
223 3 0.166667 0 0.111111
225 3 0.277778 0.0555556 0.111111
20 2 0.350639 0.0759063 0.144187
226 3 0.333333 0.0555556 0.111111
19 1 0.371584 0.0907604 0.133591
227 3 0.333333 0.111111 0.111111
13 1 0.187308 0.202805 0.0918237
228 3 0.388889 0.222222 0.111111
229 3 0.0555556 0.277778 0.111111
230 3 0.222222 0.277778 0.111111
231 3 0.333333 0.277778 0.111111
232 3 0.388889 0.277778 0.111111
15 1 0.469779 0.313589 0.0943968
234 3 0.111111 0.388889 0.111111
233 3 0.222222 0.333333 0.111111
235 3 0.166667 0.388889 0.111111
22 2 0.430287 0.415946 0.141509
236 3 0.111111 0.444444 0.111111
21 1 0.403046 0.417387 0.136268
18 2 0.427541 0.478828 0.088902
240 3 0 0.0555556 0.166667
257 3 0.111111 0.0555556 0.222222
237 3 0.222222 0 0.166667
238 3 0.388889 0 0.166667
256 3 0.333333 0 0.222222
239 3 0.444444 0 0.166667
258 3 0.111111 0.111111 0.222222
241 3 0.166667 0.111111 0.166667
242 3 0.333333 0.111111 0.166667
246 3 0.0555556 0.222222 0.166667
259 3 0 0.222222 0.222222
243 3 0.111111 0.166667 0.166667
24 2 0.196209 0.239948 0.185024
260 3 0.166667 0.222222 0.222222
244 3 0.277778 0.166667 0.166667
247 3 0.277778 0.222222 0.166667
248 3 0.388889 0.222222 0.166667
261 3 0.333333 0.222222 0.222222
245 3 0.444444 0.166667 0.166667
262 3 0.0555556 0.277778 0.222222
23 1 0.19268 0.260052 0.203865
249 3 0.166667 0.277778 0.166667
263 3 0.444444 0.277778 0.222222
264 3 0.111111 0.333333 0.222222
265 3 0.222222 0.333333 0.222222
252 3 0.277778 0.388889 0.166667
250 3 0.388889 0.333333 0.166667
251 3 0.444444 0.333333 0.166667
253 3 0 0.444444 0.166667
266 3 0.0555556 0.444444 0.222222
254 3 0.166667 0.444444 0.166667
255 3 0.388889 0.444444 0.166667
267 3 0.444444 0.444444 0.222222
268 3 0 0 0.277778
269 3 0.0555556 0.0555556 0.277778
270 3 0.222222 0.0555556 0.277778
271 3 0.388889 0.0555556 0.277778
25 1 0.458409 0.0263567 0.30582
26 2 0.486036 0.0291989 0.305291
272 3 0.0555556 0.111111 0.277778
273 3 0.166667 0.111111 0.277778
274 3 0.444444 0.111111 0.277778
27 1 0.0163542 0.244318 0.300067
275 3 0 0.166667 0.277778
276 3 0.333333 0.222222 0.277778
28 2 0.0392013 0.255682 0.311044
279 3 0 0.388889 0.277778
280 3 0.111111 0.388889 0.277778
277 3 0.166667 0.333333 0.277778
278 3 0.333333 0.333333 0.277778
281 3 0.333333 0.388889 0.277778
282 3 0.222222 0.444444 0.277778
283 3 0.0555556 0.111111 0.333333
295 3 0 0.111111 0.388889
284 3 0.111111 0.111111 0.333333
296 3 0.444444 0.111111 0.388889
285 3 0 0.166667 0.333333
29 1 0.135852 0.181649 0.356645
30 2 0.141926 0.20724 0.365577
286 3 0.222222 0.166667 0.333333
289 3 0.166667 0.222222 0.333333
297 3 0.222222 0.222222 0.388889
287 3 0.333333 0.166667 0.333333
288 3 0.388889 0.166667 0.333333
290 3 0.111111 0.277778 0.333333
298 3 0.166667 0.277778 0.388889
299 3 0.222222 0.277778 0.388889
291 3 0.277778 0.277778 0.333333
292 3 0.388889 0.277778 0.333333
300 3 0.388889 0.277778 0.388889
32 2 0.0799936 0.356629 0.348397
293 3 0 0.333333 0.333333
31 1 0.0866731 0.365593 0.373826
37 1 0.138441 0.416492 0.402786
294 3 0.277778 0.333333 0.333333
301 3 0.277778 0.333333 0.388889
302 3 0.333333 0.333333 0.388889
35 1 0.458506 0.361463 0.414511
303 3 0.444444 0.333333 0.388889
304 3 0.0555556 0.444444 0.388889
33 1 0.347276 0.473356 0.360646
34 2 0.374946 0.471089 0.361576
40 2 0.0251983 0.0776761 0.459803
306 3 0.277778 0.0555556 0.444444
305 3 0.333333 0 0.444444
307 3 0.388889 0.0555556 0.444444
39 1 0.0303572 0.0889906 0.484642
41 1 0.298834 0.126735 0.472293
42 2 0.312277 0.151043 0.472151
308 3 0.166667 0.166667 0.444444
309 3 0.333333 0.166667 0.444444
43 1 0.0201573 0.302821 0.483507
44 2 0.0353982 0.30829 0.460937
310 3 0.444444 0.277778 0.444444
311 3 0 0.333333 0.444444
314 3 0.0555556 0.388889 0.444444
312 3 0.166667 0.333333 0.444444
315 3 0.333333 0.388889 0.444444
36 2 0.485938 0.360759 0.418822
313 3 0.444444 0.333333 0.444444
38 2 0.139336 0.416841 0.430547
334 3 0.111111 0 0.555556
316 3 0.166667 0 0.5
319 3 0.166667 0.0555556 0.5
317 3 0.333333 0 0.5
320 3 0.333333 0.0555556 0.5
318 3 0.444444 0 0.5
321 3 0 0.111111 0.5
335 3 0.166667 0.111111 0.555556
49 1 0.294717 0.090523 0.578461
336 3 0.333333 0.111111 0.555556
337 3 0.444444 0.111111 0.555556
322 3 0 0.166667 0.5
325 3 0.0555556 0.222222 0.5
338 3 0 0.222222 0.555556
46 2 0.138159 0.240318 0.537709
323 3 0.222222 0.166667 0.5
51 1 0.250187 0.236646 0.579519
324 3 0.333333 0.166667 0.5
45 1 0.139619 0.259682 0.517847
326 3 0.222222 0.277778 0.5
327 3 0.388889 0.277778 0.5
328 3 0 0.333333 0.5
331 3 0 0.388889 0.5
329 3 0.111111 0.333333 0.5
332 3 0.111111 0.388889 0.5
339 3 0.166667 0.388889 0.555556
47 1 0.348403 0.355551 0.527078
48 2 0.373819 0.366671 0.528477
330 3 0.388889 0.333333 0.5
333 3 0.333333 0.388889 0.5
53 1 0.459443 0.356943 0.579838
340 3 0.111111 0.444444 0.555556
342 3 0.111111 0.0555556 0.611111
343 3 0.166667 0.0555556 0.611111
50 2 0.316394 0.0761437 0.588206
341 3 0.333333 0 0.611111
344 3 0.333333 0.0555556 0.611111
345 3 0.388889 0.111111 0.611111
348 3 0.0555556 0.222222 0.611111
346 3 0.111111 0.166667 0.611111
347 3 0.166667 0.166667 0.611111
55 1 0.468205 0.239473 0.630768
52 2 0.249813 0.263354 0.587147
349 3 0.166667 0.277778 0.611111
57 1 0.347229 0.30524 0.638586
58 2 0.374993 0.305872 0.639192
350 3 0.333333 0.277778 0.611111
56 2 0.47624 0.260527 0.64701
351 3 0.333333 0.333333 0.611111
54 2 0.485002 0.365279 0.586828
352 3 0 0.444444 0.611111
353 3 0.111111 0.444444 0.611111
354 3 0.277778 0.444444 0.611111
355 3 0.333333 0.444444 0.611111
376 3 0 0.0555556 0.722222
358 3 0.111111 0.0555556 0.666667
356 3 0.166667 0 0.666667
357 3 0.222222 0 0.666667
59 1 0.302321 0.0230916 0.707112
60 2 0.30879 0.0324639 0.681776
359 3 0.277778 0.0555556 0.666667
360 3 0.388889 0.0555556 0.666667
68 2 0.41798 0.0184598 0.739785
361 3 0.0555556 0.111111 0.666667
377 3 0 0.111111 0.722222
362 3 0.166667 0.111111 0.666667
363 3 0.222222 0.111111 0.666667
61 1 0.3155 0.130024 0.690516
62 2 0.295612 0.147754 0.698373
364 3 0.333333 0.111111 0.666667
378 3 0 0.166667 0.722222
380 3 0 0.222222 0.722222
70 2 0.0934368 0.24693 0.740978
366 3 0.222222 0.222222 0.666667
367 3 0.277778 0.222222 0.666667
365 3 0.333333 0.166667 0.666667
368 3 0.333333 0.222222 0.666667
369 3 0.388889 0.222222 0.666667
379 3 0.388889 0.166667 0.722222
381 3 0.388889 0.222222 0.722222
63 1 0.0707326 0.311157 0.692788
64 2 0.095934 0.299954 0.696101
72 2 0.208286 0.304861 0.749086
370 3 0 0.333333 0.666667
383 3 0 0.388889 0.722222
371 3 0.166667 0.333333 0.666667
382 3 0.222222 0.333333 0.722222
384 3 0.166667 0.388889 0.722222
385 3 0.222222 0.388889 0.722222
373 3 0.277778 0.388889 0.666667
372 3 0.388889 0.333333 0.666667
65 1 0.467911 0.411583 0.706629
386 3 0 0.444444 0.722222
387 3 0.166667 0.444444 0.722222
374 3 0.277778 0.444444 0.666667
388 3 0.388889 0.444444 0.722222
66 2 0.476534 0.42175 0.68226
375 3 0.444444 0.444444 0.666667
390 3 0 0.0555556 0.777778
389 3 0.222222 0 0.777778
67 1 0.415354 0.0370958 0.760215
391 3 0.0555556 0.111111 0.777778
395 3 0.0555556 0.222222 0.777778
392 3 0.222222 0.166667 0.777778
393 3 0.277778 0.166667 0.777778
396 3 0.333333 0.222222 0.777778
394 3 0.444444 0.166667 0.777778
69 1 0.0732298 0.25307 0.759022
397 3 0.0555556 0.277778 0.777778
71 1 0.180603 0.30625 0.750914
398 3 0.166667 0.277778 0.777778
399 3 0.333333 0.277778 0.777778
400 3 0.222222 0.333333 0.777778
401 3 0.277778 0.333333 0.777778
402 3 0 0.0555556 0.833333
413 3 0.0555556 0 0.888889
403 3 0.222222 0.0555556 0.833333
414 3 0.333333 0 0.888889
404 3 0.0555556 0.111111 0.833333
415 3 0 0.111111 0.888889
405 3 0.388889 0.111111 0.833333
416 3 0.333333 0.111111 0.888889
406 3 0 0.166667 0.833333
408 3 0.0555556 0.222222 0.833333
407 3 0.111111 0.166667 0.833333
409 3 0.111111 0.222222 0.833333
417 3 0.111111 0.166667 0.888889
420 3 0.166667 0.222222 0.888889
418 3 0.277778 0.166667 0.888889
419 3 0.388889 0.166667 0.888889
410 3 0.277778 0.277778 0.833333
411 3 0 0.333333 0.833333
421 3 0.333333 0.388889 0.888889
422 3 0.222222 0.444444 0.888889
412 3 0.388889 0.444444 0.833333
423 3 0 0 0.944444
424 3 0 0.222222 0.944444
425 3 0.444444 0.222222 0.944444
426 3 0.166667 0.277778 0.944444
429 3 0.0555556 0.388889 0.944444
430 3 0.111111 0.388889 0.944444
427 3 0.166667 0.333333 0.944444
428 3 0.222222 0.333333 0.944444
431 3 0.444444 0.444444 0.944444
444 3 0 0.5 0.0555556
446 3 0 0.555556 0.0555556
432 3 0.166667 0.5 0
445 3 0.277778 0.5 0.0555556
433 3 0.333333 0.5 0
447 3 0.388889 0.555556 0.0555556
73 1 0.189267 0.627541 0.0216692
74 2 0.199622 0.650237 0.0338864
434 3 0.222222 0.611111 0
435 3 0.444444 0.611111 0
75 1 0.0140035 0.69383 0.0261064
76 2 0.041552 0.695059 0.0294492
436 3 0.166667 0.666667 0
448 3 0.166667 0.722222 0.0555556
437 3 0.333333 0.666667 0
438 3 0.0555556 0.777778 0
439 3 0.111111 0.777778 0
449 3 0.388889 0.777778 0.0555556
440 3 0.0555556 0.833333 0
450 3 0.222222 0.833333 0.0555556
441 3 0.333333 0.833333 0
442 3 0.388889 0.833333 0
451 3 0 0.944444 0.0555556
443 3 0.277778 0.944444 0
452 3 0 0.5 0.111111
80 2 0.252444 0.569744 0.14039
78 2 0.411003 0.538858 0.145058
77 1 0.42233 0.516698 0.13272
453 3 0.0555556 0.611111 0.111111
79 1 0.247556 0.596923 0.137388
454 3 0.222222 0.611111 0.111111
455 3 0.388889 0.611111 0.111111
456 3 0.388889 0.666667 0.111111
457 3 0 0.833333 0.111111
458 3 0.0555556 0.833333 0.111111
461 3 0.0555556 0.888889 0.111111
459 3 0.111111 0.833333 0.111111
462 3 0.111111 0.888889 0.111111
460 3 0.444444 0.833333 0.111111
463 3 0.444444 0.944444 0.111111
480 3 0.0555556 0.555556 0.222222
479 3 0.111111 0.5 0.222222
464 3 0.222222 0.555556 0.166667
481 3 0.222222 0.555556 0.222222
84 2 0.26056 0.535512 0.245356
86 2 0.430186 0.530179 0.247912
465 3 0.0555556 0.611111 0.166667
87 1 0.458349 0.638281 0.249761
469 3 0 0.722222 0.166667
482 3 0 0.666667 0.222222
466 3 0.111111 0.666667 0.166667
483 3 0.222222 0.722222 0.222222
82 2 0.41273 0.686658 0.183638
467 3 0.333333 0.666667 0.166667
470 3 0.333333 0.722222 0.166667
81 1 0.420603 0.702231 0.205251
89 1 0.427391 0.697868 0.241866
468 3 0.444444 0.666667 0.166667
471 3 0.444444 0.722222 0.166667
484 3 0.0555556 0.777778 0.222222
485 3 0.222222 0.777778 0.222222
486 3 0.277778 0.777778 0.222222
487 3 0.444444 0.777778 0.222222
472 3 0.111111 0.833333 0.166667
474 3 0.111111 0.888889 0.166667
473 3 0.222222 0.833333 0.166667
488 3 0.166667 0.833333 0.222222
475 3 0.388889 0.888889 0.166667
476 3 0.444444 0.888889 0.166667
489 3 0.444444 0.833333 0.222222
477 3 0 0.944444 0.166667
478 3 0.444444 0.944444 0.166667
491 3 0 0.555556 0.277778
83 1 0.23944 0.520044 0.254644
492 3 0.166667 0.555556 0.277778
85 1 0.403147 0.525377 0.252088
490 3 0.388889 0.5 0.277778
493 3 0.388889 0.611111 0.277778
88 2 0.486096 0.639497 0.250239
90 2 0.405942 0.691021 0.258134
494 3 0.277778 0.777778 0.277778
495 3 0.388889 0.777778 0.277778
496 3 0.111111 0.833333 0.277778
497 3 0.444444 0.944444 0.277778
498 3 0 0.5 0.333333
499 3 0.111111 0.555556 0.333333
505 3 0.111111 0.555556 0.388889
500 3 0.166667 0.555556 0.333333
506 3 0.222222 0.555556 0.388889
99 1 0.308473 0.574146 0.406667
504 3 0.277778 0.5 0.388889
507 3 0.277778 0.555556 0.388889
91 1 0.371992 0.576036 0.356502
94 2 0.0697857 0.639064 0.364166
508 3 0.0555556 0.611111 0.388889
93 1 0.096881 0.638714 0.358056
97 1 0.182164 0.58562 0.410595
92 2 0.35023 0.590631 0.365721
102 2 0.485606 0.585017 0.413358
509 3 0.444444 0.611111 0.388889
95 1 0.026156 0.736401 0.363421
501 3 0.111111 0.666667 0.333333
510 3 0.222222 0.666667 0.388889
511 3 0.166667 0.722222 0.388889
512 3 0.222222 0.722222 0.388889
96 2 0.0293995 0.763599 0.358802
103 1 0.0149866 0.75264 0.411942
513 3 0.111111 0.777778 0.388889
514 3 0.388889 0.777778 0.388889
502 3 0 0.833333 0.333333
503 3 0.0555556 0.888889 0.333333
515 3 0 0.833333 0.388889
516 3 0 0.888889 0.388889
517 3 0.111111 0.888889 0.388889
518 3 0.333333 0.888889 0.388889
519 3 0 0.944444 0.388889
520 3 0 0.5 0.444444
521 3 0.0555556 0.5 0.444444
526 3 0 0.555556 0.444444
98 2 0.206725 0.581047 0.422738
522 3 0.222222 0.5 0.444444
527 3 0.222222 0.555556 0.444444
523 3 0.333333 0.5 0.444444
524 3 0.388889 0.5 0.444444
101 1 0.458839 0.58165 0.419975
525 3 0.444444 0.5 0.444444
528 3 0.444444 0.555556 0.444444
105 1 0.0699089 0.635394 0.47291
529 3 0 0.611111 0.444444
106 2 0.0967578 0.642383 0.471534
100 2 0.302638 0.59252 0.426666
530 3 0.388889 0.611111 0.444444
108 2 0.0833236 0.73858 0.480127
104 2 0.0405689 0.74736 0.421391
532 3 0.0555556 0.722222 0.444444
533 3 0.333333 0.722222 0.444444
531 3 0.444444 0.666667 0.444444
534 3 0.444444 0.722222 0.444444
107 1 0.0833431 0.76142 0.464318
535 3 0.0555556 0.944444 0.444444
536 3 0.111111 0.944444 0.444444
537 3 0.0555556 0.5 0.5
539 3 0.111111 0.555556 0.5
555 3 0.111111 0.555556 0.555556
538 3 0.166667 0.5 0.5
540 3 0.166667 0.555556 0.5
554 3 0.166667 0.5 0.555556
541 3 0.333333 0.555556 0.5
556 3 0.333333 0.555556 0.555556
542 3 0.166667 0.611111 0.5
557 3 0.166667 0.611111 0.555556
112 2 0.363573 0.59488 0.576017
558 3 0.333333 0.611111 0.555556
559 3 0.444444 0.611111 0.555556
560 3 0.166667 0.666667 0.555556
543 3 0.388889 0.666667 0.5
544 3 0.333333 0.722222 0.5
561 3 0.388889 0.666667 0.555556
109 1 0.463174 0.697991 0.5377
110 2 0.48127 0.690897 0.517855
545 3 0.0555556 0.777778 0.5
562 3 0.111111 0.777778 0.555556
546 3 0.166667 0.777778 0.5
563 3 0 0.833333 0.555556
564 3 0.0555556 0.833333 0.555556
547 3 0.222222 0.833333 0.5
548 3 0.277778 0.833333 0.5
549 3 0.333333 0.833333 0.5
550 3 0.444444 0.833333 0.5
551 3 0.111111 0.944444 0.5
565 3 0.111111 0.944444 0.555556
566 3 0.166667 0.944444 0.555556
552 3 0.277778 0.944444 0.5
553 3 0.333333 0.944444 0.5
567 3 0.333333 0.944444 0.555556
568 3 0.388889 0.944444 0.555556
569 3 0.444444 0.944444 0.555556
570 3 0.277778 0.5 0.611111
111 1 0.358649 0.571787 0.590649
571 3 0.444444 0.611111 0.611111
113 1 0.0163067 0.702127 0.637375
114 2 0.0392488 0.686762 0.640403
575 3 0.111111 0.722222 0.611111
572 3 0.222222 0.666667 0.611111
116 2 0.251814 0.747102 0.625427
573 3 0.277778 0.666667 0.611111
574 3 0.444444 0.666667 0.611111
115 1 0.248186 0.752898 0.65235
576 3 0.277778 0.777778 0.611111
577 3 0.333333 0.777778 0.611111
578 3 0.388889 0.777778 0.611111
579 3 0.166667 0.888889 0.611111
581 3 0.0555556 0.555556 0.666667
598 3 0 0.555556 0.722222
599 3 0.0555556 0.555556 0.722222
117 1 0.182709 0.581834 0.70172
597 3 0.222222 0.5 0.722222
122 2 0.315729 0.536402 0.746124
582 3 0.277778 0.555556 0.666667
580 3 0.388889 0.5 0.666667
600 3 0.333333 0.555556 0.722222
583 3 0.444444 0.555556 0.666667
601 3 0 0.611111 0.722222
602 3 0.111111 0.611111 0.722222
118 2 0.20618 0.584833 0.687169
584 3 0.222222 0.611111 0.666667
603 3 0.222222 0.611111 0.722222
586 3 0.222222 0.722222 0.666667
605 3 0.277778 0.722222 0.722222
587 3 0.333333 0.722222 0.666667
604 3 0.333333 0.666667 0.722222
119 1 0.473522 0.737651 0.700667
585 3 0.444444 0.666667 0.666667
588 3 0.444444 0.722222 0.666667
589 3 0.277778 0.777778 0.666667
120 2 0.470922 0.762349 0.688222
590 3 0 0.833333 0.666667
591 3 0.0555556 0.833333 0.666667
593 3 0 0.888889 0.666667
608 3 0 0.888889 0.722222
606 3 0.111111 0.833333 0.722222
609 3 0.166667 0.888889 0.722222
592 3 0.277778 0.833333 0.666667
607 3 0.277778 0.833333 0.722222
594 3 0 0.944444 0.666667
595 3 0.0555556 0.944444 0.666667
596 3 0.222222 0.944444 0.666667
610 3 0.0555556 0.5 0.777778
611 3 0.222222 0.555556 0.777778
121 1 0.295382 0.519154 0.753876
612 3 0.444444 0.611111 0.777778
613 3 0.111111 0.666667 0.777778
614 3 0.388889 0.666667 0.777778
615 3 0.333333 0.722222 0.777778
616 3 0.222222 0.833333 0.777778
617 3 0.277778 0.833333 0.777778
618 3 0 0.944444 0.777778
619 3 0.222222 0.944444 0.777778
620 3 0.277778 0.944444 0.777778
621 3 0.0555556 0.5 0.833333
633 3 0.0555556 0.555556 0.888889
622 3 0.333333 0.5 0.833333
623 3 0.333333 0.555556 0.833333
634 3 0.444444 0.555556 0.888889
635 3 0.444444 0.611111 0.888889
637 3 0 0.722222 0.888889
636 3 0.388889 0.666667 0.888889
624 3 0.444444 0.666667 0.833333
625 3 0.444444 0.722222 0.833333
626 3 0 0.777778 0.833333
627 3 0.166667 0.777778 0.833333
628 3 0.333333 0.777778 0.833333
629 3 0.0555556 0.833333 0.833333
631 3 0 0.888889 0.833333
638 3 0.0555556 0.833333 0.888889
639 3 0 0.888889 0.888889
640 3 0.0555556 0.888889 0.888889
630 3 0.333333 0.833333 0.833333
641 3 0.111111 0.944444 0.888889
632 3 0.388889 0.944444 0.833333
644 3 0.0555556 0.555556 0.944444
645 3 0.222222 0.555556 0.944444
642 3 0.277778 0.5 0.944444
646 3 0.388889 0.555556 0.944444
643 3 0.444444 0.5 0.944444
647 3 0 0.611111 0.944444
648 3 0.333333 0.611111 0.944444
649 3 0.111111 0.722222 0.944444
650 3 0.166667 0.722222 0.944444
653 3 0.222222 0.888889 0.944444
651 3 0.388889 0.833333 0.944444
652 3 0.444444 0.833333 0.944444
654 3 0.166667 0.944444 0.944444
655 3 0.5 0 0
657 3 0.555556 0.0555556 0
669 3 0.555556 0.0555556 0.0555556
670 3 0.611111 0.0555556 0.0555556
658 3 0.722222 0.0555556 0
667 3 0.666667 0 0.0555556
671 3 0.666667 0.0555556 0.0555556
656 3 0.777778 0 0
668 3 0.777778 0 0.0555556
672 3 0.888889 0.0555556 0.0555556
659 3 0.777778 0.111111 0
125 1 0.519166 0.200141 0.0740445
674 3 0.555556 0.222222 0.0555556
673 3 0.944444 0.166667 0.0555556
127 1 0.6903 0.303414 0.0702515
675 3 0.833333 0.277778 0.0555556
661 3 0.555556 0.388889 0
124 2 0.741636 0.412489 0.0175071
660 3 0.666667 0.333333 0
662 3 0.666667 0.388889 0
663 3 0.722222 0.388889 0
676 3 0.722222 0.333333 0.0555556
664 3 0.777778 0.388889 0
677 3 0.944444 0.333333 0.0555556
678 3 0.5 0.444444 0.0555556
679 3 0.555556 0.444444 0.0555556
665 3 0.722222 0.444444 0
680 3 0.722222 0.444444 0.0555556
123 1 0.758364 0.420845 0.0380484
666 3 0.888889 0.444444 0
681 3 0.833333 0.444444 0.0555556
682 3 0.888889 0.444444 0.0555556
683 3 0.944444 0.444444 0.0555556
684 3 0.5 0 0.111111
130 2 0.593003 0.0770892 0.146661
685 3 0.944444 0 0.111111
129 1 0.573664 0.0895775 0.131116
686 3 0.666667 0.111111 0.111111
687 3 0.777778 0.111111 0.111111
688 3 0.944444 0.111111 0.111111
126 2 0.53639 0.188748 0.0926222
131 1 0.518578 0.240052 0.135837
690 3 0.611111 0.222222 0.111111
689 3 0.666667 0.166667 0.111111
132 2 0.536977 0.259948 0.141941
128 2 0.698589 0.307697 0.0964151
691 3 0.944444 0.277778 0.111111
692 3 0.722222 0.333333 0.111111
694 3 0.722222 0.388889 0.111111
695 3 0.777778 0.388889 0.111111
693 3 0.833333 0.333333 0.111111
696 3 0.611111 0.0555556 0.166667
706 3 0.611111 0 0.222222
697 3 0.722222 0.0555556 0.166667
707 3 0.666667 0 0.222222
708 3 0.777778 0 0.222222
709 3 0.944444 0 0.222222
698 3 0.555556 0.111111 0.166667
699 3 0.666667 0.111111 0.166667
711 3 0.5 0.222222 0.222222
712 3 0.611111 0.222222 0.222222
713 3 0.666667 0.222222 0.222222
710 3 0.777778 0.166667 0.222222
700 3 0.888889 0.166667 0.166667
133 1 0.579197 0.300467 0.206688
701 3 0.5 0.277778 0.166667
702 3 0.555556 0.277778 0.166667
134 2 0.587469 0.310644 0.182201
714 3 0.722222 0.277778 0.222222
715 3 0.944444 0.277778 0.222222
703 3 0.555556 0.333333 0.166667
718 3 0.611111 0.388889 0.222222
716 3 0.666667 0.333333 0.222222
704 3 0.833333 0.388889 0.166667
717 3 0.833333 0.333333 0.222222
719 3 0.666667 0.444444 0.222222
720 3 0.777778 0.444444 0.222222
705 3 0.833333 0.444444 0.166667
721 3 0.888889 0.444444 0.222222
135 1 0.569499 0.0273154 0.306699
136 2 0.597167 0.0282401 0.304412
137 1 0.625142 0.0286559 0.303779
138 2 0.652636 0.0268997 0.307333
722 3 0.888889 0.0555556 0.277778
723 3 0.722222 0.111111 0.277778
726 3 0.555556 0.222222 0.277778
724 3 0.611111 0.166667 0.277778
725 3 0.666667 0.166667 0.277778
727 3 0.888889 0.277778 0.277778
728 3 0.5 0.333333 0.277778
729 3 0.833333 0.333333 0.277778
730 3 0.666667 0.444444 0.277778
743 3 0.555556 0.0555556 0.388889
139 1 0.625205 0.08188 0.359232
732 3 0.666667 0.0555556 0.333333
742 3 0.666667 0 0.388889
744 3 0.833333 0.0555556 0.388889
731 3 0.944444 0 0.333333
745 3 0.944444 0.0555556 0.388889
140 2 0.652573 0.0847866 0.362991
746 3 0.611111 0.111111 0.388889
733 3 0.666667 0.111111 0.333333
734 3 0.722222 0.111111 0.333333
735 3 0.5 0.166667 0.333333
736 3 0.555556 0.222222 0.333333
747 3 0.5 0.166667 0.388889
748 3 0.722222 0.166667 0.388889
737 3 0.944444 0.222222 0.333333
738 3 0.611111 0.277778 0.333333
749 3 0.777778 0.277778 0.388889
739 3 0.944444 0.277778 0.333333
750 3 0.944444 0.277778 0.388889
142 2 0.759077 0.358174 0.406573
751 3 0.777778 0.388889 0.388889
740 3 0.888889 0.388889 0.333333
752 3 0.555556 0.444444 0.388889
741 3 0.666667 0.444444 0.333333
753 3 0.888889 0.444444 0.388889
144 2 0.539486 0.0762326 0.4699
754 3 0.611111 0 0.444444
145 1 0.68493 0.0758678 0.465393
755 3 0.777778 0 0.444444
756 3 0.777778 0.0555556 0.444444
143 1 0.516069 0.0904341 0.474545
757 3 0.5 0.111111 0.444444
146 2 0.703959 0.0907989 0.479051
758 3 0.833333 0.111111 0.444444
759 3 0.555556 0.166667 0.444444
760 3 0.722222 0.166667 0.444444
761 3 0.777778 0.166667 0.444444
762 3 0.777778 0.222222 0.444444
763 3 0.833333 0.222222 0.444444
764 3 0.555556 0.277778 0.444444
765 3 0.777778 0.277778 0.444444
766 3 0.888889 0.277778 0.444444
767 3 0.944444 0.277778 0.444444
768 3 0.5 0.333333 0.444444
141 1 0.740923 0.364048 0.426761
148 2 0.708228 0.414984 0.472509
150 2 0.763861 0.416252 0.471447
769 3 0.777778 0.333333 0.444444
770 3 0.888889 0.333333 0.444444
771 3 0.611111 0.444444 0.444444
147 1 0.680661 0.418349 0.471935
149 1 0.736139 0.417081 0.472998
772 3 0.666667 0.444444 0.444444
784 3 0.555556 0 0.555556
774 3 0.611111 0.0555556 0.5
152 2 0.708133 0.0818282 0.529587
155 1 0.680661 0.0289802 0.582123
773 3 0.666667 0 0.5
785 3 0.666667 0 0.555556
786 3 0.888889 0 0.555556
788 3 0.833333 0.0555556 0.555556
789 3 0.888889 0.0555556 0.555556
787 3 0.944444 0 0.555556
151 1 0.680756 0.0848385 0.525969
777 3 0.555556 0.222222 0.5
792 3 0.555556 0.222222 0.555556
790 3 0.666667 0.166667 0.555556
793 3 0.777778 0.222222 0.555556
775 3 0.888889 0.166667 0.5
791 3 0.833333 0.166667 0.555556
776 3 0.944444 0.166667 0.5
778 3 0.888889 0.277778 0.5
154 2 0.57818 0.414148 0.515129
779 3 0.5 0.333333 0.5
780 3 0.5 0.388889 0.5
794 3 0.611111 0.388889 0.555556
158 2 0.705084 0.352194 0.5829
781 3 0.833333 0.388889 0.5
795 3 0.5 0.444444 0.555556
153 1 0.588487 0.419186 0.540427
782 3 0.611111 0.444444 0.5
796 3 0.611111 0.444444 0.555556
160 2 0.708315 0.416994 0.582699
783 3 0.666667 0.444444 0.5
797 3 0.5 0 0.611111
798 3 0.555556 0 0.611111
161 1 0.625055 0.0285926 0.63796
162 2 0.652723 0.026963 0.639818
156 2 0.708228 0.0265753 0.584544
799 3 0.888889 0 0.611111
800 3 0.611111 0.111111 0.611111
801 3 0.722222 0.277778 0.611111
802 3 0.777778 0.277778 0.611111
803 3 0.833333 0.277778 0.611111
804 3 0.944444 0.277778 0.611111
805 3 0.555556 0.333333 0.611111
807 3 0.611111 0.388889 0.611111
157 1 0.683805 0.370028 0.583767
159 1 0.680574 0.416339 0.583968
806 3 0.666667 0.333333 0.611111
808 3 0.722222 0.388889 0.611111
809 3 0.5 0.444444 0.611111
821 3 0.555556 0 0.722222
164 2 0.706972 0.025475 0.744462
822 3 0.666667 0 0.722222
823 3 0.777778 0.0555556 0.722222
166 2 0.533902 0.0922211 0.741259
824 3 0.555556 0.111111 0.722222
810 3 0.777778 0.111111 0.666667
825 3 0.777778 0.111111 0.722222
826 3 0.833333 0.111111 0.722222
811 3 0.5 0.166667 0.666667
828 3 0.5 0.222222 0.722222
812 3 0.611111 0.166667 0.666667
827 3 0.611111 0.166667 0.722222
829 3 0.722222 0.222222 0.722222
813 3 0.944444 0.166667 0.666667
167 1 0.57667 0.250082 0.737814
814 3 0.5 0.277778 0.666667
830 3 0.555556 0.277778 0.722222
169 1 0.693111 0.318497 0.745139
831 3 0.666667 0.277778 0.722222
832 3 0.888889 0.277778 0.722222
815 3 0.944444 0.277778 0.666667
833 3 0.5 0.388889 0.722222
818 3 0.611111 0.388889 0.666667
816 3 0.666667 0.333333 0.666667
834 3 0.722222 0.388889 0.722222
819 3 0.777778 0.388889 0.666667
817 3 0.944444 0.333333 0.666667
835 3 0.5 0.444444 0.722222
172 2 0.706376 0.423774 0.749846
820 3 0.888889 0.444444 0.666667
165 1 0.521653 0.0744455 0.758741
836 3 0.555556 0 0.777778
839 3 0.5 0.0555556 0.777778
163 1 0.681917 0.0300806 0.755538
837 3 0.666667 0 0.777778
840 3 0.666667 0.0555556 0.777778
838 3 0.944444 0 0.777778
841 3 0.777778 0.111111 0.777778
168 2 0.589996 0.249918 0.762186
842 3 0.666667 0.222222 0.777778
843 3 0.722222 0.222222 0.777778
844 3 0.777778 0.222222 0.777778
845 3 0.944444 0.222222 0.777778
170 2 0.695778 0.292614 0.754861
171 1 0.682513 0.409559 0.750154
847 3 0.833333 0.388889 0.777778
846 3 0.944444 0.333333 0.777778
848 3 0.666667 0.444444 0.777778
859 3 0.5 0.0555556 0.888889
857 3 0.611111 0 0.888889
860 3 0.611111 0.0555556 0.888889
861 3 0.666667 0.0555556 0.888889
849 3 0.777778 0.0555556 0.833333
858 3 0.777778 0 0.888889
850 3 0.888889 0.0555556 0.833333
862 3 0.833333 0.0555556 0.888889
851 3 0.5 0.111111 0.833333
863 3 0.555556 0.111111 0.888889
864 3 0.722222 0.111111 0.888889
865 3 0.555556 0.166667 0.888889
866 3 0.611111 0.166667 0.888889
868 3 0.722222 0.222222 0.888889
867 3 0.833333 0.166667 0.888889
852 3 0.666667 0.277778 0.833333
869 3 0.5 0.333333 0.888889
870 3 0.611111 0.333333 0.888889
854 3 0.722222 0.388889 0.833333
871 3 0.666667 0.333333 0.888889
853 3 0.777778 0.333333 0.833333
855 3 0.777778 0.388889 0.833333
872 3 0.944444 0.333333 0.888889
873 3 0.944444 0.388889 0.888889
856 3 0.888889 0.444444 0.833333
874 3 0.833333 0.444444 0.888889
875 3 0.5 0.0555556 0.944444
876 3 0.611111 0.0555556 0.944444
877 3 0.5 0.111111 0.944444
879 3 0.666667 0.222222 0.944444
878 3 0.888889 0.166667 0.944444
880 3 0.5 0.277778 0.944444
881 3 0.666667 0.333333 0.944444
882 3 0.722222 0.388889 0.944444
883 3 0.555556 0.444444 0.944444
884 3 0.611111 0.555556 0
892 3 0.666667 0.555556 0.0555556
893 3 0.777778 0.555556 0.0555556
891 3 0.888889 0.5 0.0555556
894 3 0.833333 0.555556 0.0555556
895 3 0.888889 0.555556 0.0555556
885 3 0.777778 0.611111 0
886 3 0.888889 0.611111 0
897 3 0.666667 0.722222 0.0555556
898 3 0.777778 0.722222 0.0555556
896 3 0.888889 0.666667 0.0555556
899 3 0.666667 0.777778 0.0555556
900 3 0.722222 0.777778 0.0555556
887 3 0.555556 0.833333 0
889 3 0.5 0.888889 0
901 3 0.5 0.888889 0.0555556
902 3 0.666667 0.888889 0.0555556
903 3 0.722222 0.888889 0.0555556
904 3 0.777778 0.888889 0.0555556
888 3 0.888889 0.833333 0
905 3 0.611111 0.944444 0.0555556
906 3 0.722222 0.944444 0.0555556
890 3 0.833333 0.944444 0
907 3 0.833333 0.944444 0.0555556
908 3 0.555556 0.5 0.111111
910 3 0.555556 0.555556 0.111111
173 1 0.683502 0.521134 0.133501
174 2 0.705387 0.534421 0.144277
909 3 0.666667 0.5 0.111111
911 3 0.666667 0.555556 0.111111
912 3 0.722222 0.555556 0.111111
913 3 0.5 0.611111 0.111111
914 3 0.777778 0.611111 0.111111
915 3 0.833333 0.611111 0.111111
916 3 0.888889 0.611111 0.111111
917 3 0.5 0.722222 0.111111
175 1 0.681553 0.694942 0.144034
176 2 0.707336 0.693947 0.133744
918 3 0.888889 0.722222 0.111111
919 3 0.777778 0.777778 0.111111
920 3 0.833333 0.777778 0.111111
921 3 0.611111 0.833333 0.111111
923 3 0.611111 0.888889 0.111111
922 3 0.666667 0.833333 0.111111
924 3 0.833333 0.888889 0.111111
925 3 0.888889 0.888889 0.111111
926 3 0.944444 0.944444 0.111111
928 3 0.5 0.555556 0.166667
940 3 0.611111 0.555556 0.222222
941 3 0.777778 0.555556 0.222222
927 3 0.888889 0.5 0.166667
942 3 0.888889 0.555556 0.222222
929 3 0.5 0.611111 0.166667
943 3 0.5 0.611111 0.222222
930 3 0.611111 0.611111 0.166667
944 3 0.666667 0.611111 0.222222
931 3 0.888889 0.611111 0.166667
945 3 0.944444 0.611111 0.222222
932 3 0.5 0.666667 0.166667
934 3 0.611111 0.722222 0.166667
946 3 0.666667 0.722222 0.222222
935 3 0.777778 0.722222 0.166667
933 3 0.888889 0.666667 0.166667
947 3 0.888889 0.722222 0.222222
936 3 0.555556 0.777778 0.166667
948 3 0.888889 0.777778 0.222222
949 3 0.666667 0.833333 0.222222
937 3 0.777778 0.833333 0.166667
950 3 0.777778 0.888889 0.222222
951 3 0.888889 0.888889 0.222222
938 3 0.555556 0.944444 0.166667
939 3 0.666667 0.944444 0.166667
952 3 0.555556 0.5 0.277778
953 3 0.5 0.611111 0.277778
954 3 0.944444 0.611111 0.277778
177 1 0.684628 0.700784 0.313062
178 2 0.704261 0.688105 0.29805
955 3 0.722222 0.666667 0.277778
956 3 0.777778 0.666667 0.277778
957 3 0.888889 0.666667 0.277778
958 3 0.722222 0.777778 0.277778
959 3 0.944444 0.777778 0.277778
960 3 0.722222 0.888889 0.277778
961 3 0.944444 0.888889 0.277778
962 3 0.888889 0.944444 0.277778
963 3 0.5 0.5 0.333333
978 3 0.5 0.5 0.388889
180 2 0.586702 0.517924 0.407476
979 3 0.611111 0.5 0.388889
981 3 0.611111 0.555556 0.388889
966 3 0.666667 0.555556 0.333333
964 3 0.777778 0.5 0.333333
965 3 0.888889 0.5 0.333333
967 3 0.888889 0.555556 0.333333
980 3 0.833333 0.5 0.388889