ITEM: TIMESTEP
0
ITEM: NUMBER OF ATOMS
84
ITEM: BOX BOUNDS pp pp pp
0.0000000000000000e+00 5.0000000000000000e+01
0.0000000000000000e+00 5.0000000000000000e+01
0.0000000000000000e+00 5.0000000000000000e+01
ITEM: ATOMS id type x y z
2 1 28.5605 16.2523 2.05175
81 1 48.2515 13.5303 3.96624
39 1 19.9245 20.905 0.279898
73 1 45.4976 27.3964 1.12625
72 1 20.2999 30.2523 0.71967
36 1 22.6533 34.0217 2.7863
61 1 33.4167 34.1049 0.385282
45 1 20.6843 40.5457 0.748691
14 1 0.317941 43.6277 1.57053
29 1 3.20128 3.84409 7.65614
21 1 38.124 0.0569787 7.6408
11 1 17.0958 29.0626 5.21416
43 1 18.1402 32.3559 4.8194
70 1 19.6454 30.6899 4.48853
62 1 25.4319 33.5726 5.13205
74 1 28.8176 36.7141 4.2343
48 1 44.5045 37.113 7.65066
35 1 25.6732 39.0614 4.76722
33 1 18.2634 2.49665 11.2776
59 1 23.3385 0.809732 9.16824
51 1 15.6397 6.92044 11.881
28 1 19.6566 17.8234 8.5026
8 1 26.0499 20.6826 11.752
37 1 29.4146 22.0182 9.70124
57 1 6.68078 33.8288 10.1223
46 1 33.2549 14.8904 12.6977
83 1 32.6212 14.483 15.7708
49 1 34.622 41.4181 13.6393
63 1 4.44417 43.2388 13.8709
24 1 29.8478 1.65529 20.5016
9 1 16.6492 23.4943 18.1225
23 1 25.3835 21.2065 16.8757
65 1 37.0127 22.462 18.1572
54 1 15.0519 26.8857 17.4775
82 1 10.5496 6.82602 24.9618
67 1 12.5279 6.31136 24.9607
20 1 7.9203 16.5511 24.9056
4 1 41.396 42.2992 23.3527
17 1 35.43 21.6205 26.3274
12 1 34.3325 25.8183 28.3615
18 1 35.0437 29.0372 27.6921
19 1 20.848 42.8289 25.0525
13 1 21.1161 48.2196 27.0542
42 1 25.0192 47.7049 25.907
41 1 30.6836 49.5702 26.1007
52 1 34.3105 6.5616 30.8253
34 1 42.1894 27.3239 32.0209
53 1 30.8491 30.4803 32.7492
66 1 17.7929 45.7983 32.4307
25 1 21.0033 2.81933 34.5226
58 1 26.1502 6.87734 37.3995
6 1 34.719 21.8621 36.4298
15 1 45.9471 32.5362 35.4142
31 1 14.1038 42.0887 35.0754
55 1 44.2937 43.5435 35.5459
10 1 35.3929 48.1399 36.819
80 1 25.8375 1.4512 40.3938
40 1 4.2486 6.19928 41.3477
77 1 14.658 7.10659 40.4017
16 1 6.3074 8.46315 40.1818
68 1 14.1525 11.6105 38.3314
26 1 21.1018 8.43336 39.4166
76 1 23.5533 9.89413 40.6744
38 1 48.7246 14.2168 40.9514
56 1 20.5152 49.3717 39.9778
27 1 25.5552 6.22334 45.7589
47 1 9.93433 16.3143 44.3324
64 1 28.0013 18.1199 41.7229
50 1 36.248 20.5505 42.4594
75 1 15.8194 26.5689 43.2572
1 1 16.7952 27.619 43.3497
7 1 26.2049 26.5837 42.7278
60 1 40.6189 31.8734 45.5574
78 1 31.2806 33.6612 43.2105
79 1 39.0995 44.5823 44.6794
32 1 11.8943 8.26714 45.8689
84 1 9.01813 17.7931 48.2112
3 1 33.7996 20.527 47.0067
22 1 18.9874 21.708 47.0623
5 1 38.1467 32.055 48.6961
71 1 38.8041 31.0672 46.7109
69 1 36.4368 43.6662 48.3233
44 1 49.6038 41.8365 45.8422
30 1 26.7685 47.605 47.3621
ITEM: TIMESTEP
1000
ITEM: NUMBER OF ATOMS
84
ITEM: BOX BOUNDS pp pp pp
0.0000000000000000e+00 5.0000000000000000e+01
0.0000000000000000e+00 5.0000000000000000e+01
0.0000000000000000e+00 5.0000000000000000e+01
ITEM: ATOMS id type x y z
2 1 28.5605 16.2523 2.05175
81 1 48.2515 13.5303 3.96624
39 1 19.9312 20.8993 0.302782
73 1 45.4976 27.3964 1.12625
72 1 20.254 31.4657 3.96746
36 1 23.562 30.4235 5.50496
61 1 33.694 34.0184 0.304389
45 1 21.0671 40.2211 0.482577
14 1 0.317941 43.6277 1.57053
29 1 3.20128 3.84409 7.65614
21 1 38.124 0.0569787 7.6408
11 1 18.5833 35.1513 2.43578
43 1 17.3138 32.5799 5.08675
70 1 22.8275 27.0105 1.6732
62 1 23.0915 32.9637 3.19417
74 1 24.5654 37.3708 4.70131
48 1 44.5045 37.113 7.65066
35 1 27.5672 38.7652 5.51774
33 1 18.8187 1.81452 11.115
59 1 23.1656 0.859516 9.24117
51 1 15.2573 7.55279 11.9707
28 1 19.6566 17.8234 8.5026
8 1 26.6016 21.0862 12.521
37 1 28.9154 21.7915 9.83507
57 1 6.68078 33.8288 10.1223
46 1 33.3048 14.9225 12.4556
83 1 32.5713 14.4509 16.0128
49 1 34.622 41.4181 13.6393
63 1 4.44417 43.2388 13.8709
24 1 29.8478 1.65529 20.5016
9 1 16.6195 23.5573 18.1105
23 1 25.3311 21.0294 15.973
65 1 37.0127 22.462 18.1572
54 1 15.0816 26.8226 17.4895
82 1 49.7521 9.63505 24.9678
67 1 23.3254 3.50233 24.9547
20 1 7.9203 16.5511 24.9056
4 1 41.396 42.2992 23.3527
17 1 34.8514 21.5541 27.1508
12 1 35.3279 25.8327 26.9341
18 1 34.6267 29.0893 28.2963
19 1 20.8686 43.0456 25.1306
13 1 21.3809 47.9639 26.8917
42 1 24.7369 47.7448 25.9914
41 1 30.6806 49.5692 26.1006
52 1 34.3105 6.5616 30.8253
34 1 42.1894 27.3239 32.0209
53 1 30.8492 30.4803 32.749
66 1 17.7521 45.7573 32.4599
25 1 21.0033 2.81933 34.5226
58 1 24.6841 7.04415 37.6975
6 1 34.6942 21.8608 36.4779
15 1 45.9471 32.5362 35.4142
31 1 14.1446 42.1297 35.0461
55 1 44.2937 43.5435 35.5459
10 1 35.8365 47.5816 37.9036
80 1 25.6375 1.37307 40.3781
40 1 4.15628 6.14805 41.389
77 1 14.6668 7.02779 40.4379
16 1 6.36843 8.54404 40.1464
68 1 14.1437 11.6893 38.2952
26 1 21.8722 7.85591 38.7656
76 1 24.249 10.3048 41.0274
38 1 0.489768 12.4359 41.5606
56 1 20.7152 49.4498 39.9934
27 1 25.5552 6.22334 45.7589
47 1 9.48831 16.8879 44.7844
64 1 27.7604 17.9057 42.2225
50 1 38.1884 18.5645 41.8682
75 1 47.4169 6.84609 35.9319
1 1 32.9379 49.6864 49.8942
7 1 26.2049 26.5837 42.7278
60 1 44.5867 38.9037 49.4839
78 1 31.2806 33.6612 43.2105
79 1 38.4214 45.3506 44.4519
32 1 11.8943 8.26714 45.8689
84 1 10.2632 16.4309 47.8033
3 1 33.4963 20.6346 47.4721
22 1 18.9808 21.7138 47.0394
5 1 41.7792 38.7775 2.23364
71 1 29.5553 19.4949 38.9058
69 1 35.8907 44.0968 47.8323
44 1 49.6038 41.8365 45.8422
30 1 26.8857 47.4841 47.4637
ITEM: TIMESTEP
2000
ITEM: NUMBER OF ATOMS
84
ITEM: BOX BOUNDS pp pp pp
0.0000000000000000e+00 5.0000000000000000e+01
0.0000000000000000e+00 5.0000000000000000e+01
0.0000000000000000e+00 5.0000000000000000e+01
ITEM: ATOMS id type x y z
2 1 28.5605 16.2523 2.05175
81 1 47.1248 14.5684 2.73037
39 1 19.9435 20.8887 0.345005
70 1 27.4828 23.8158 48.5132
73 1 45.4976 27.3964 1.12625
72 1 19.3819 32.2243 7.13797
62 1 20.9683 35.6542 7.49731
11 1 20.0244 36.6018 0.935451
61 1 34.0258 33.9188 0.209946
45 1 23.1777 36.4037 0.341523
5 1 44.7204 46.0938 6.4165
14 1 0.917159 44.1825 1.20167
29 1 3.20128 3.84409 7.65614
21 1 38.124 0.0569787 7.6408
43 1 20.5557 35.3552 4.05073
36 1 22.3686 32.2001 8.19079
74 1 21.1128 38.9583 2.47091
48 1 44.5033 37.1158 7.64741
35 1 26.3807 32.7074 1.29465
33 1 18.9216 0.120522 11.2993
59 1 24.2564 0.885963 7.66102
51 1 14.263 9.21495 12.2013
46 1 33.3346 14.9416 12.3112
28 1 19.6566 17.8234 8.5026
37 1 29.2711 21.9271 9.58484
57 1 6.68078 33.8288 10.1223
83 1 32.5415 14.4318 16.1572
8 1 26.2928 20.9287 12.5
23 1 25.2841 21.0513 16.2442
49 1 34.622 41.4181 13.6393
63 1 4.44417 43.2388 13.8709
24 1 30.1053 1.84562 20.8346
9 1 16.5703 23.6618 18.0907
65 1 37.0127 22.462 18.1572
54 1 15.1308 26.7181 17.5094
67 1 31.856 3.40453 22.8078
82 1 37.7212 12.7649 24.9745
20 1 7.9203 16.5511 24.9056
4 1 41.396 42.2992 23.3527
17 1 34.7156 22.1346 27.4092
12 1 35.5077 25.8933 26.6831
18 1 34.5387 28.4657 28.3402
19 1 21.4256 41.5006 24.3948
13 1 21.8707 49.9693 27.5104
42 1 23.9234 47.9452 25.9721
41 1 33.7532 45.5794 28.3864
52 1 34.3105 6.5616 30.8253
34 1 42.1894 27.3239 32.0209
53 1 30.8932 30.4627 32.6977
66 1 16.9035 44.9039 33.0683
25 1 21.0926 2.59411 34.2969
75 1 27.4626 39.1221 30.7102
6 1 34.5784 21.8502 36.688
15 1 45.9471 32.5362 35.4142
31 1 14.9932 42.9831 34.4377
55 1 44.2937 43.5435 35.5459
80 1 26.734 1.80148 40.4638
40 1 3.43175 5.72447 41.665
77 1 14.8161 5.69753 41.0494
58 1 23.421 4.75603 35.5466
26 1 24.495 7.93377 38.5551
38 1 3.41963 9.91104 42.1178
16 1 6.3562 9.25594 40.0664
68 1 13.9944 13.0196 37.6838
76 1 22.9073 12.5977 42.6061
71 1 22.6274 13.7757 25.7622
56 1 19.6187 49.0214 39.9077
10 1 37.6484 45.8188 36.6639
27 1 25.5552 6.22334 45.7589
47 1 9.69963 16.9295 46.9712
64 1 22.2401 13.3319 48.4481
50 1 42.4049 13.223 40.0964
7 1 26.2049 26.5837 42.7278
78 1 31.2806 33.6612 43.2105
79 1 37.3682 46.3574 44.2086
1 1 44.1582 25.0239 8.36146
32 1 11.8944 8.26737 45.8689
84 1 12.4969 14.09 46.2916
3 1 32.7188 20.8998 48.6574
22 1 18.9685 21.7243 46.9972
60 1 49.7182 46.6314 4.00079
69 1 35.2543 44.7649 47.045
44 1 49.6189 41.857 45.912
30 1 29.1022 45.599 49.2508
ITEM: TIMESTEP
3000
ITEM: NUMBER OF ATOMS
84
ITEM: BOX BOUNDS pp pp pp
0.0000000000000000e+00 5.0000000000000000e+01
0.0000000000000000e+00 5.0000000000000000e+01
0.0000000000000000e+00 5.0000000000000000e+01
ITEM: ATOMS id type x y z
2 1 28.5605 16.2523 2.05175
81 1 45.7488 15.8506 1.2145
39 1 19.9516 20.8817 0.373065
73 1 45.4976 27.3964 1.12625
35 1 20.0135 35.7011 0.282893
11 1 24.2395 36.0782 48.0663
43 1 22.8948 37.6616 1.70206
45 1 21.5989 35.1679 4.05411
61 1 34.3466 33.8224 0.118615
74 1 23.0189 33.774 0.738903
14 1 1.14507 49.2155 4.76751
60 1 4.6635 49.1935 4.61529
29 1 3.20266 3.83746 7.65222
59 1 25.6302 0.774191 3.83225
21 1 38.124 0.0569787 7.6408
72 1 21.6497 35.2531 7.55866
36 1 18.3119 35.3109 9.27894
62 1 20.2545 32.2835 11.209
48 1 44.5017 37.1195 7.64307
5 1 47.8984 3.54291 10.1536
33 1 19.531 48.3172 11.2044
51 1 13.4982 10.8832 12.7023
46 1 32.943 15.3115 12.6313
28 1 19.6566 17.8234 8.5026
37 1 28.8558 21.617 8.9676
1 1 5.81589 45.3799 17.697
57 1 4.18053 35.9931 10.0983
83 1 31.4098 15.4579 15.7915
8 1 27.75 21.703 12.792
23 1 24.2429 20.5866 16.5698
49 1 34.622 41.4181 13.6393
63 1 4.68564 43.0347 13.716
24 1 33.0986 3.78776 21.777
9 1 16.5547 23.695 18.0843
65 1 37.8175 21.6156 20.1356
54 1 15.1438 26.6864 17.5294
67 1 34.8056 4.05908 18.9367
20 1 7.2074 17.1525 25.8918
82 1 26.0867 15.7917 24.9809
19 1 21.2809 39.0962 22.7951
4 1 41.396 42.2992 23.3527
71 1 15.7076 8.16314 12.8272
17 1 34.5005 22.6265 27.7664
12 1 35.8047 26.0074 26.2751
18 1 34.2528 27.9619 28.6316
41 1 39.9716 39.2905 36.0318
13 1 23.8072 2.44552 27.7887
42 1 21.6536 49.5047 26.9186
52 1 34.3105 6.5616 30.8253
34 1 42.1894 27.3239 32.0209
53 1 31.0971 30.3605 32.4571
75 1 10.7923 23.6855 22.017
66 1 17.2465 45.2488 32.8224
25 1 21.5822 2.54437 34.0195
58 1 22.7711 4.78771 35.9055
6 1 34.4664 21.8399 36.8912
15 1 45.9471 32.5362 35.4142
31 1 14.6502 42.6382 34.6836
10 1 39.4463 42.3787 34.1439
55 1 43.9908 43.5509 35.5116
80 1 29.2094 2.7733 40.6539
40 1 3.74515 5.50229 41.5396
77 1 14.9584 4.43034 41.6318
26 1 26.0086 5.05084 35.4145
16 1 6.15847 9.19316 39.9684
68 1 13.8522 14.2868 37.1013
50 1 46.4825 8.05742 38.3829
56 1 17.1415 48.0535 39.7141
27 1 25.5552 6.22334 45.7589
38 1 5.42483 8.03316 43.0694
76 1 21.3263 13.7255 42.1738
7 1 26.2049 26.5837 42.7278
78 1 31.2806 33.6612 43.2105
79 1 36.3663 47.2754 43.9531
32 1 11.902 8.34142 45.8661
84 1 12.123 14.3028 45.2551
64 1 17.2641 10.5608 6.91639
47 1 12.4304 14.4193 48.6633
22 1 18.9603 21.7313 46.9691
70 1 30.6659 21.3925 44.5433
3 1 33.2873 20.5044 0.733931
30 1 31.3242 43.788 0.911805
69 1 34.5436 45.4548 46.371
44 1 49.6677 41.9232 46.1235
ITEM: TIMESTEP
4000
ITEM: NUMBER OF ATOMS
84
ITEM: BOX BOUNDS pp pp pp
0.0000000000000000e+00 5.0000000000000000e+01
0.0000000000000000e+00 5.0000000000000000e+01
0.0000000000000000e+00 5.0000000000000000e+01
ITEM: ATOMS id type x y z
59 1 27.0267 0.660568 49.9401
2 1 28.5605 16.2523 2.05175
81 1 44.3499 17.154 49.6735
3 1 34.5374 19.7052 2.6171
39 1 19.9495 20.8836 0.365615
73 1 45.4976 27.3964 1.12625
35 1 22.8381 38.2397 4.20726
45 1 19.4507 36.0161 49.5876
74 1 19.9924 37.3041 3.61761
61 1 34.6727 33.7245 0.0257708
43 1 21.3959 38.8868 0.79921
30 1 33.9299 42.1077 2.1199
29 1 3.37143 6.28373 5.96904
21 1 38.124 0.0569787 7.6408
64 1 9.3595 10.0412 14.5453
72 1 22.3949 35.633 1.42592
48 1 44.5001 37.1234 7.63866
14 1 3.46941 49.7283 6.21532
60 1 6.07014 0.185409 3.96322
5 1 48.5219 11.8984 13.4102
28 1 19.6566 17.8234 8.5026
37 1 28.6571 21.4568 8.60576
62 1 15.0132 32.9519 18.9147
57 1 1.17483 38.6271 10.0722
36 1 23.2839 35.4454 5.42241
33 1 20.4263 46.3411 11.0009
71 1 11.5705 3.84737 -0.0778948
51 1 12.5238 9.22662 12.6568
46 1 31.4696 16.5289 13.6466
83 1 28.7814 18.1887 14.9841
23 1 23.7803 18.3225 18.9567
8 1 30.1276 22.6309 11.2835
49 1 34.6054 41.4289 13.677
63 1 4.33916 43.3271 17.9519
67 1 35.7668 3.68833 15.6821
9 1 16.5332 24.0893 19.6148
65 1 40.3896 18.862 26.5116
54 1 13.6343 26.777 19.4076
1 1 18.5036 16.635 19.0574
24 1 38.1802 6.79691 22.0551
82 1 14.2596 18.8686 24.9875
75 1 1.90004 6.18191 16.232
19 1 17.9911 39.8735 20.3103
4 1 41.396 42.2992 23.3527
13 1 24.913 2.55302 27.0826
20 1 6.04089 18.1952 26.9066
17 1 34.4793 23.6211 28.0063
12 1 35.8053 26.238 26.3654
18 1 33.3082 27.4461 29.4412
42 1 20.1514 2.48375 30.4484
52 1 34.3105 6.5616 30.8253
34 1 42.1894 27.3239 32.0209
53 1 32.0623 29.6511 31.3173
66 1 18.408 46.8147 32.1956
25 1 18.9307 48.8485 29.2885
58 1 27.6331 6.0725 36.2929
26 1 24.5821 4.47045 35.3359
68 1 13.7076 15.575 36.5092
6 1 34.1446 21.4948 37.6966
15 1 45.7912 32.888 35.5434
41 1 46.6031 40.3483 36.6145
31 1 14.1405 42.1257 35.0491
10 1 45.4285 37.2366 38.9383
55 1 39.3741 37.4008 35.1806
80 1 31.7233 3.76635 40.8422
40 1 4.60471 6.1742 39.2409
77 1 15.1029 3.14217 42.224
50 1 0.101766 2.14194 36.2667
16 1 4.76871 5.71489 43.2336
56 1 14.6233 47.0696 39.5173
38 1 9.05647 9.25234 43.1186
27 1 25.5552 6.22334 45.7589
84 1 12.1063 14.4334 47.0589
76 1 19.7192 14.8721 41.7344
70 1 33.4374 19.6613 40.1365
7 1 26.2049 26.5837 42.7278
78 1 31.2806 33.6612 43.2105
79 1 35.5075 48.3646 43.4786
32 1 11.7671 8.8556 46.1275
47 1 14.566 11.5673 47.3608
22 1 18.9625 21.7294 46.9765
11 1 25.8051 27.7152 49.9403
69 1 33.3146 45.8394 46.3811
44 1 49.7173 41.9904 46.3385
ITEM: TIMESTEP
5000
ITEM: NUMBER OF ATOMS
84
ITEM: BOX BOUNDS pp pp pp
0.0000000000000000e+00 5.0000000000000000e+01
0.0000000000000000e+00 5.0000000000000000e+01
0.0000000000000000e+00 5.0000000000000000e+01
ITEM: ATOMS id type x y z
60 1 6.66985 1.00173 3.5144
2 1 28.5141 16.3409 2.04261
3 1 35.7585 18.9245 4.45642
39 1 19.9386 20.8929 0.328378
73 1 45.4976 27.3964 1.12625
74 1 23.708 39.2238 3.20753
72 1 21.8051 37.8072 0.709263
61 1 34.9913 33.6288 49.9351
43 1 21.1058 36.4541 3.41559
30 1 36.5033 40.4957 3.23329
21 1 38.124 0.0569787 7.6408
29 1 49.3351 25.3486 4.8882
36 1 23.0504 36.4345 47.4964
48 1 44.4986 37.1271 7.63435
35 1 24.0482 41.0112 0.572103
14 1 5.73597 48.3017 6.0202
28 1 19.6566 17.8234 8.5026
37 1 28.9174 21.6001 8.76982
8 1 31.9864 23.0241 9.77334
57 1 48.2391 41.1997 10.0466
33 1 21.3007 44.411 10.8021
67 1 36.6372 3.50084 13.3289
75 1 39.3623 38.0939 39.0603
64 1 47.9124 17.9285 11.0669
51 1 14.1738 0.417805 13.8771
5 1 14.6851 31.723 17.5441
46 1 27.7813 24.3048 15.6575
83 1 25.9099 14.8271 12.3707
49 1 34.5763 41.4476 13.7427
1 1 17.0562 42.068 28.4007
23 1 28.8925 11.8915 20.5627
9 1 14.1545 26.8146 24.4807
54 1 11.1061 25.591 25.1651
62 1 9.75292 33.8828 25.3662
19 1 14.7779 40.6327 17.8834
63 1 3.90039 43.7027 22.1201
24 1 43.2123 9.56073 21.5014
82 1 3.91423 23.3587 21.8365
4 1 49.4717 37.7578 24.614
13 1 25.0259 2.88584 26.7121
20 1 4.72199 17.4836 31.689
65 1 42.9018 16.1726 32.7391
17 1 36.4816 21.7445 25.8159
12 1 36.5224 24.909 25.4441
42 1 19.0159 49.8655 32.5302
52 1 34.3105 6.5616 30.8253
18 1 33.7984 24.5053 27.6885
34 1 42.188 27.3243 32.0218
53 1 28.8528 35.7975 36.1816
66 1 18.3644 0.720556 29.2955
25 1 17.86 47.8836 28.2617
50 1 1.16776 45.6585 33.0285
26 1 28.5394 6.88386 37.1182
58 1 27.0165 4.31469 34.7745
68 1 13.5664 16.8331 35.9309
15 1 47.1188 10.3394 1.61855
55 1 36.8736 27.2293 35.0212
41 1 49.6363 35.8568 39.6604
31 1 13.9518 41.9362 35.1844
80 1 34.1786 4.73626 41.0262
40 1 8.70454 9.1079 42.5382
70 1 35.3034 14.5606 39.4476
6 1 34.8304 24.8014 34.8671
10 1 1.74514 39.5524 39.3739
56 1 12.1638 46.1086 39.325
77 1 15.2176 1.88352 42.8117
16 1 5.98654 0.936572 42.8255
27 1 25.5552 6.22334 45.7589
38 1 10.7696 9.96632 40.3409
76 1 18.1495 15.9919 41.3052
7 1 26.2049 26.5837 42.7278
78 1 31.2806 33.6612 43.2105
79 1 34.4521 49.2267 43.295
71 1 5.70457 1.50787 38.2222
59 1 28.3913 0.548983 46.1385
32 1 12.2899 8.21419 48.0093
47 1 13.0896 11.4079 46.3978
84 1 15.4659 12.6484 48.611
81 1 41.7972 18.647 48.7539
22 1 18.9733 21.7201 47.0138
11 1 26.354 20.0911 1.71328
45 1 18.6542 38.1228 1.80506
44 1 49.7657 42.0561 46.5485
69 1 32.3018 46.3883 46.1777
ITEM: TIMESTEP
6000
ITEM: NUMBER OF ATOMS
84
ITEM: BOX BOUNDS pp pp pp
0.0000000000000000e+00 5.0000000000000000e+01
0.0000000000000000e+00 5.0000000000000000e+01
0.0000000000000000e+00 5.0000000000000000e+01
ITEM: ATOMS id type x y z
60 1 6.84551 1.00584 3.91744
15 1 2.75104 11.7795 28.5146
2 1 32.0873 11.8232 2.16053
11 1 23.2771 17.0655 3.35788
39 1 19.934 20.8978 0.292005
73 1 45.6233 27.284 1.18511
43 1 22.9175 36.7511 49.2148
45 1 22.7957 38.8407 2.07936
74 1 24.6871 40.1213 49.261
72 1 20.6218 39.9966 49.3974
35 1 22.8154 39.3758 46.6247
30 1 39.0812 38.8809 4.34862
21 1 38.143 0.511231 8.26322
3 1 36.9846 18.1605 6.23376
29 1 41.5048 46.37 3.45196
48 1 44.497 37.1308 7.63003
14 1 8.418 47.7019 4.96256
83 1 23.4514 5.77814 8.70603
28 1 19.6566 17.8234 8.5026
64 1 36.404 25.6992 7.55745
37 1 29.6415 22.0435 9.41701
8 1 33.5133 23.0304 8.18848
57 1 47.6274 45.068 11.444
33 1 22.1766 42.4775 10.6031
51 1 16.264 41.4861 15.181
67 1 37.6291 2.81352 10.3579
46 1 19.9899 37.0072 17.4649
49 1 34.5471 41.4663 13.8085
23 1 34.3024 5.26026 22.1257
5 1 34.4611 2.57164 22.5163
19 1 11.02 41.5418 15.4176
24 1 48.2007 12.0423 21.1359
82 1 46.2341 29.7741 13.0756
9 1 9.63261 28.6772 29.8014
4 1 49.6225 30.6433 24.0166
63 1 3.45548 44.0713 26.2851
13 1 24.069 3.35795 29.5688
17 1 37.6895 20.3651 24.2729
12 1 37.6095 23.533 24.141
18 1 34.6132 21.2833 25.823
54 1 9.1323 26.1896 32.1095
62 1 14.7103 36.458 29.3529
1 1 10.0296 18.882 41.1718
25 1 16.825 1.5258 28.587
66 1 16.5863 48.4413 26.7018
52 1 34.3067 6.56019 30.8292
65 1 49.0003 11.9189 38.9874
20 1 3.47272 14.3429 43.2667
34 1 42.7202 28.3378 29.8313
50 1 2.24188 39.1424 29.7947
42 1 19.239 49.5491 29.0495
26 1 29.8465 4.72943 34.5245
58 1 28.9377 7.28283 37.1014
68 1 13.425 18.0935 35.3515
6 1 28.6147 18.8525 31.0835
55 1 44.6759 23.0293 39.5788
53 1 25.743 41.775 40.8933
31 1 13.752 41.7584 35.3428
71 1 47.1069 49.8821 32.624
80 1 36.6458 5.76011 41.18
38 1 12.3175 11.1251 41.9688
76 1 16.5771 17.1136 40.8753
70 1 37.1749 9.6875 38.6008
41 1 5.51426 37.6523 40.9869
10 1 3.83487 34.6272 40.4951
75 1 28.2275 46.1666 47.4708
56 1 11.9644 43.6239 39.885
16 1 6.94818 46.5312 34.3475
77 1 15.3093 0.622156 43.4079
27 1 25.5552 6.22334 45.7589
40 1 14.0943 10.6461 44.8269
7 1 26.2049 26.5837 42.7278
78 1 31.2806 33.6612 43.2105
79 1 29.6364 48.618 44.2579
59 1 31.4511 0.834018 41.781
32 1 11.3866 10.71 46.6873
47 1 15.0041 8.60495 47.6065
84 1 16.2715 12.3582 47.2698
81 1 33.1166 20.8548 1.22094
22 1 18.9852 21.7099 47.0546
36 1 21.555 41.5097 2.76104
61 1 35.3104 33.5329 49.8443
44 1 49.8142 42.1218 46.7589
69 1 32.5639 46.4668 45.0087
ITEM: TIMESTEP
7000
ITEM: NUMBER OF ATOMS
84
ITEM: BOX BOUNDS pp pp pp
0.0000000000000000e+00 5.0000000000000000e+01
0.0000000000000000e+00 5.0000000000000000e+01
0.0000000000000000e+00 5.0000000000000000e+01
ITEM: ATOMS id type x y z
60 1 7.61901 49.9407 4.58773
2 1 35.8091 6.86283 2.34785
11 1 19.6589 14.3773 5.13884
39 1 19.9629 20.8726 0.293399
81 1 25.2971 23.2558 5.32621
73 1 45.7532 27.1677 1.2454
45 1 23.5944 40.8302 0.47229
36 1 24.1831 35.8418 0.458032
29 1 29.84 20.7098 1.09893
21 1 40.1497 47.262 5.96066
3 1 38.1985 17.4322 7.89709
8 1 31.5168 31.0161 5.0631
64 1 28.2261 22.747 6.87205
48 1 45.3733 38.6319 7.18351
30 1 42.6376 37.4777 5.93812
14 1 10.4767 48.1767 3.64349
67 1 37.9998 5.3471 10.3595
83 1 21.0148 46.8098 5.07402
28 1 20.0157 18.0225 8.25985
37 1 29.0369 25.918 6.60658
33 1 23.0448 40.5613 10.4057
57 1 48.3151 49.4366 13.6912
82 1 37.1822 34.8783 4.92256
19 1 7.62828 41.4543 13.3652
51 1 13.9013 34.9049 10.8711
49 1 34.5182 41.4849 13.8737
46 1 16.5735 47.6671 24.5945
5 1 0.542801 9.05694 30.5385
23 1 43.5842 12.5131 20.6345
24 1 3.06241 14.0593 21.0554
17 1 39.3045 18.8281 22.618
12 1 38.0126 21.5133 23.2298
4 1 42.3324 23.9112 22.0865
25 1 15.2041 49.8723 27.7707
15 1 2.615 13.5122 2.13487
18 1 35.6812 18.9176 23.7184
63 1 49.2411 43.0073 28.5369
66 1 18.3494 49.2338 25.9319
42 1 16.5159 2.43683 24.4671
13 1 22.9587 3.88336 32.9432
52 1 34.1079 6.58193 31.5277
6 1 23.196 12.3668 27.3083
9 1 4.61937 29.4626 36.0075
54 1 7.70832 27.8484 38.0609
34 1 44.8152 30.2529 25.0856
62 1 27.01 38.7816 34.7849
50 1 3.30641 32.6844 26.5897
71 1 37.9366 49.8516 22.3821
58 1 32.1024 5.83178 34.2959
26 1 30.0502 7.00059 36.2529
68 1 13.2848 19.3426 34.7774
31 1 13.2908 41.8844 36.0241
16 1 8.7671 45.6402 27.5572
80 1 39.0305 6.19166 41.271
70 1 39.0902 5.44093 37.8229
65 1 7.25314 6.69983 45.1091
1 1 23.4763 43.27 44.0016
76 1 15.0188 18.2214 40.4509
55 1 2.70078 16.1857 46.4073
10 1 13.4807 36.4475 46.8841
41 1 8.49474 32.5306 39.7371
56 1 14.6331 39.0426 40.2039
53 1 21.3833 4.26402 40.9154
77 1 15.4001 49.372 43.9988
59 1 31.8855 49.7183 47.6558
27 1 27.0371 3.47976 43.7876
38 1 9.10539 15.4521 43.2412
40 1 16.0971 11.5193 46.3082
20 1 3.30329 10.7646 3.93593
7 1 26.2049 26.5837 42.7278
78 1 31.2806 33.6612 43.2105
79 1 28.6102 48.8147 48.0969
69 1 25.9608 47.4643 1.06411
32 1 17.7321 12.6662 43.3836
47 1 16.8942 7.38567 0.393255
84 1 17.8989 8.51682 47.4656
22 1 18.9926 21.7036 47.0788
43 1 24.5774 38.0819 47.9763
61 1 35.6267 33.438 49.7543
72 1 23.8432 41.4416 46.5969
74 1 23.4998 39.2414 43.3927
35 1 42.4613 43.5457 20.0784
44 1 49.8623 42.187 46.9674
75 1 25.9437 4.91272 40.6928
ITEM: TIMESTEP
8000
ITEM: NUMBER OF ATOMS
84
ITEM: BOX BOUNDS pp pp pp
0.0000000000000000e+00 5.0000000000000000e+01
0.0000000000000000e+00 5.0000000000000000e+01
0.0000000000000000e+00 5.0000000000000000e+01
ITEM: ATOMS id type x y z
65 1 13.9122 1.43248 2.1059
2 1 39.535 1.89708 2.53537
39 1 20.004 20.8367 0.333817
73 1 45.8832 27.0513 1.30575
83 1 18.7674 37.6573 1.26862
21 1 42.0607 44.4277 3.99348
14 1 11.6972 49.3039 2.59944
69 1 27.7451 3.74479 7.18061
79 1 28.8343 0.0409625 7.17048
28 1 19.6549 15.8616 6.59098
35 1 21.6806 12.8708 4.18446
51 1 10.6168 28.8558 5.57931
8 1 26.3867 39.2026 6.05101
48 1 45.213 39.3737 5.85018
30 1 47.5892 38.8056 7.85746
60 1 9.43028 48.5597 4.70799
59 1 28.9962 46.8719 4.3133
67 1 38.4699 7.46343 10.0236
11 1 16.7584 14.0483 8.34663
3 1 39.4136 16.7032 9.56222
37 1 20.7761 22.1402 10.6298
81 1 23.0773 23.9874 8.86884
19 1 4.23641 41.3665 11.3104
33 1 23.9185 38.6439 10.1998
71 1 28.7565 49.8212 12.1274
57 1 49.0036 3.80988 15.9408
49 1 34.3203 41.0245 14.4236
15 1 33.6853 41.9028 12.68
46 1 5.95039 3.52834 19.2369
23 1 3.01108 20.0684 19.0656
4 1 37.1611 20.6707 20.4863
12 1 38.9964 17.3951 19.9848
34 1 46.974 32.0243 20.1294
25 1 21.294 1.87184 24.1849
24 1 7.92934 16.0786 20.9748
18 1 36.0721 16.5332 21.546
17 1 38.8311 16.0492 23.2331
50 1 4.37209 26.2195 23.3813
42 1 18.4408 3.039 27.0821
6 1 16.5027 5.99354 25.9243
66 1 20.1957 6.57371 27.2618
63 1 41.7229 40.6156 28.6798
16 1 14.5788 41.7607 26.5787
58 1 32.119 3.41189 30.4634
52 1 34.1019 5.94804 31.3839
13 1 24.8408 4.99622 37.0534
27 1 25.876 7.88084 35.4099
75 1 29.7155 5.14172 34.584
53 1 9.48329 20.0158 36.4333
68 1 12.7353 20.2609 34.6975
20 1 16.2342 36.7261 35.4882
70 1 40.9652 1.57695 39.105
80 1 41.4601 6.23653 39.3014
26 1 30.7319 9.0912 40.2079
5 1 16.4581 14.2189 39.4522
76 1 13.9832 19.2701 40.3789
56 1 17.0049 35.3764 38.0935
31 1 13.1203 41.1124 39.0956
62 1 39.3229 41.1078 40.2227
74 1 23.6844 42.4138 41.478
55 1 6.95637 3.85948 42.7433
29 1 13.3704 3.48605 44.8396
40 1 20.2245 10.9742 44.9521
38 1 8.03572 19.1197 43.9204
9 1 0.0328249 28.5966 42.569
54 1 3.2293 28.5089 41.9845
41 1 17.8913 26.8613 45.1076
7 1 26.2049 26.5837 42.7278
45 1 24.4492 36.7594 45.3521
82 1 33.1634 36.635 45.7631
78 1 31.2117 33.8735 43.5376
72 1 24.904 39.5735 43.2617
1 1 23.958 42.3987 45.0434
77 1 15.5531 48.2189 44.1765
47 1 20.1055 5.56333 48.1947
84 1 19.0341 8.8147 48.3932
32 1 19.095 13.0397 47.7387
22 1 18.9881 21.7075 47.0643
64 1 26.2917 23.1776 49.9688
36 1 29.3405 35.0551 46.5929
61 1 34.0565 35.4916 48.9592
43 1 25.9535 40.0772 46.5884
10 1 25.653 44.067 47.486
44 1 49.9105 42.2523 47.1761
ITEM: TIMESTEP
9000
ITEM: NUMBER OF ATOMS
84
ITEM: BOX BOUNDS pp pp pp
0.0000000000000000e+00 5.0000000000000000e+01
0.0000000000000000e+00 5.0000000000000000e+01
0.0000000000000000e+00 5.0000000000000000e+01
ITEM: ATOMS id type x y z
65 1 13.1345 48.3318 5.58594
2 1 43.2176 46.9843 2.72007
39 1 16.1588 19.1311 49.2601
73 1 45.6265 26.6253 2.36344
83 1 16.8286 28.3923 47.2842
21 1 43.9743 41.6159 2.06538
14 1 15.8279 1.18636 4.49506
69 1 22.7512 5.28572 9.03943
79 1 24.415 2.85373 7.35876
28 1 17.6565 12.3429 6.59069
35 1 0.522921 32.8172 32.8707
51 1 7.37142 22.8788 0.350658
8 1 26.55 34.6938 12.5386
48 1 49.0919 37.6293 8.09898
30 1 47.0779 38.1841 5.11626
60 1 8.13229 45.4953 8.02315
59 1 29.1117 43.6788 17.0072
67 1 38.8601 9.78173 9.81665
11 1 16.7357 14.8342 9.32136
3 1 40.3011 15.7434 12.18
37 1 19.8499 21.2792 11.5129
81 1 17.9713 19.4598 14.5421
19 1 1.6932 35.8496 9.76246
33 1 7.65198 35.1153 12.6018
71 1 28.1132 3.23524 8.8411
57 1 47.5592 7.39346 19.199
49 1 36.5408 32.6554 27.6799
15 1 28.3681 37.0762 10.685
46 1 0.493394 11.4357 10.2675
23 1 11.8675 28.2002 18.927
4 1 34.8715 15.4272 21.2437
12 1 37.4502 12.5147 10.9014
34 1 49.1069 33.7744 15.2324
25 1 22.5464 4.99028 25.4761
24 1 12.7383 18.0737 20.8951
18 1 38.3441 15.3869 21.4223
17 1 36.5642 14.9584 24.2593
50 1 5.88318 19.1652 18.7996
42 1 17.7336 4.65187 25.5995
6 1 17.324 7.81437 28.1863
66 1 21.0195 2.61777 24.0984
63 1 34.2952 38.2477 28.8178
16 1 28.2676 36.898 27.6061
58 1 33.783 3.24487 29.1741
52 1 29.4923 4.82805 24.4553
13 1 30.1103 11.6477 36.3934
27 1 28.3538 8.97049 38.0163
75 1 32.3866 5.78458 25.6289
53 1 4.0516 26.5167 34.1758
68 1 5.13933 28.85 31.7022
20 1 2.71715 22.2932 42.2088
70 1 42.7337 47.7447 40.6515
80 1 43.8731 6.27798 37.0431
26 1 28.2689 7.6211 44.1678
5 1 33.4302 21.4513 49.9108
76 1 13.5337 20.1978 41.0653
56 1 36.7314 20.476 13.0488
31 1 13.169 40.322 42.4377
62 1 0.702849 43.9026 43.332
74 1 25.1483 39.8836 41.7495
55 1 11.1821 42.0984 38.1015
29 1 44.6302 48.5205 40.8579
40 1 24.8566 9.19505 48.8196
38 1 6.31452 21.4387 43.7473
9 1 46.3966 27.5711 48.7307
54 1 48.5036 29.112 44.7957
41 1 24.2972 23.0891 1.57603
7 1 27.4526 24.7745 44.5235
45 1 27.8315 42.419 42.3861
82 1 35.6193 35.5697 44.3731
78 1 34.1917 30.568 36.0614
72 1 27.1106 39.9929 44.7636
1 1 27.0666 41.8901 39.1145
77 1 15.9822 47.6711 43.0443
47 1 20.6897 7.59359 44.4405
84 1 21.7223 11.5841 49.5446
32 1 22.1348 7.53407 49.3818
22 1 20.6065 21.3933 0.863766
64 1 31.7334 24.9559 40.9312
36 1 26.9165 43.5638 46.2906
61 1 28.6051 38.2988 42.1122
43 1 29.0093 46.2299 44.0176
10 1 25.1252 43.9422 40.5205
44 1 0.70292 41.8824 49.6778
ITEM: TIMESTEP
10000
ITEM: NUMBER OF ATOMS
84
ITEM: BOX BOUNDS pp pp pp
0.0000000000000000e+00 5.0000000000000000e+01
0.0000000000000000e+00 5.0000000000000000e+01
0.0000000000000000e+00 5.0000000000000000e+01
ITEM: ATOMS id type x y z
51 1 49.7065 15.9799 43.5231
22 1 9.70696 9.74816 3.4462
41 1 17.7408 25.0679 4.82926
5 1 19.8114 36.8236 9.37179
73 1 43.3585 24.8863 8.33707
21 1 45.9372 38.0493 49.7918
2 1 47.0745 42.6792 3.42057
14 1 15.0815 47.9867 8.68194
79 1 21.3306 8.75281 9.30913
28 1 15.6228 8.55979 11.7058
48 1 49.2682 33.5734 0.970652
30 1 49.3327 23.4838 3.76303
60 1 6.76196 42.3522 10.744
65 1 17.0277 0.209424 7.13186
71 1 18.8325 9.47441 7.05392
69 1 23.8701 6.91532 6.58201
46 1 46.6601 19.633 1.18958
12 1 31.0337 13.6033 3.30499
67 1 44.3666 8.09448 5.99983
11 1 18.269 14.0319 13.0952
3 1 39.5395 15.4235 17.3845
37 1 15.7509 17.4009 18.8024
19 1 48.906 25.2816 6.51227
8 1 28.6642 31.3964 15.4193
15 1 29.0944 31.1447 11.9725
81 1 16.2343 17.1386 13.3604
56 1 6.96039 3.05743 38.271
33 1 44.6824 31.9683 10.3197
34 1 39.1288 36.9131 23.089
57 1 44.4882 10.738 22.6117
50 1 8.17502 12.6651 13.5821
23 1 19.9454 35.778 19.4232
59 1 30.9796 34.7068 29.1923
66 1 21.7642 1.24166 14.8101
52 1 33.809 3.7855 20.9139
4 1 38.7324 13.3491 23.0198
17 1 35.3173 11.3168 23.3562
18 1 35.3155 14.4032 21.7599
24 1 17.5264 19.796 20.3202
42 1 19.6092 8.73535 27.8336
6 1 21.6132 6.3485 29.7759
25 1 17.8277 6.34557 29.8477
75 1 30.8168 2.82035 19.5717
49 1 47.121 25.9567 32.6029
16 1 33.5373 24.7679 24.445
63 1 35.2944 43.1138 33.1257
58 1 30.7335 6.62585 21.6073
68 1 47.2662 36.8834 29.3272
35 1 28.9437 24.5881 39.9677
80 1 46.2775 6.235 34.7869
13 1 31.546 12.6672 38.5098
53 1 48.8944 33.578 31.3179
78 1 28.7166 31.9809 32.5259
27 1 34.3001 15.2774 37.3023
76 1 12.7773 21.5084 41.6109
64 1 38.6006 22.5189 35.7594
55 1 12.3226 34.5281 29.9641
1 1 24.8556 35.6566 35.8962
10 1 27.6714 48.6379 36.5414
70 1 37.5398 40.5809 42.569
29 1 34.5199 14.9717 39.0788
47 1 21.8505 12.0475 41.5347
26 1 28.4627 8.43715 48.2103
20 1 47.2352 17.0956 45.5102
38 1 49.9307 15.2787 47.1171
7 1 32.798 20.5027 46.8977
54 1 46.2509 31.3393 42.5473
82 1 40.9835 35.266 43.5666
31 1 16.345 35.3327 49.2536
74 1 27.3214 46.9539 43.1796
72 1 30.4903 44.8464 42.6132
61 1 29.655 42.7156 40.5079
62 1 9.10014 47.8909 39.9732
45 1 27.611 45.5646 40.2655
77 1 16.4111 47.1235 41.9118
43 1 25.7779 45.7878 37.2487
32 1 24.3639 8.62863 3.29825
40 1 25.9015 6.55939 49.5197
84 1 25.3507 4.1832 2.50201
39 1 11.6231 49.188 18.2695
83 1 16.5286 16.8171 43.9667
9 1 42.2996 26.2347 5.03862
44 1 4.55601 40.8057 9.03374
36 1 24.4664 45.2726 40.1753
ITEM: TIMESTEP
11000
ITEM: NUMBER OF ATOMS
84
ITEM: BOX BOUNDS pp pp pp
0.0000000000000000e+00 5.0000000000000000e+01
0.0000000000000000e+00 5.0000000000000000e+01
0.0000000000000000e+00 5.0000000000000000e+01
ITEM: ATOMS id type x y z
84 1 26.3104 4.59142 11.7481
22 1 42.7197 2.6024 49.3411
32 1 26.8674 6.76407 6.52991
12 1 17.6409 18.5254 48.2196
46 1 1.46614 23.6498 47.1246
30 1 42.9328 11.5601 47.5161
48 1 48.1336 31.6489 41.8883
2 1 0.771051 38.9102 4.03586
65 1 13.8121 49.2632 15.5278
69 1 16.8001 13.283 2.51701
67 1 4.478 3.05544 46.602
71 1 20.7172 11.9938 5.37004
41 1 10.505 29.6658 7.73001
9 1 38.3322 25.1495 11.9827
19 1 46.9216 13.0257 47.6695
28 1 15.6257 1.38201 22.2337
79 1 19.3233 10.8011 2.43402
73 1 41.1634 23.1412 14.1037
15 1 29.6094 25.2493 14.6646
33 1 37.8185 28.6998 9.73512
5 1 15.4128 2.41681 14.2528
44 1 3.66564 36.3314 14.8295
60 1 10.1388 42.6012 17.0406
14 1 18.5199 49.2563 10.1235