LAMMPS (29 Sep 2021 - Update 2)
# Test input file for water interacting through CS potential

units 		real
atom_style	atomic

variable	dt	equal 1.0
variable	Nrun	equal 100000
variable	Nthermo equal ${Nrun}/100
variable	Nthermo equal 100000/100
variable	Ndump	equal ${Nrun}/100
variable	Ndump	equal 100000/100

lattice		sc 1.0
Lattice spacing in x,y,z = 1.0000000 1.0000000 1.0000000
region		box block 0 50 0 50 0 50
create_box	1 box
Created orthogonal box = (0.0000000 0.0000000 0.0000000) to (50.000000 50.000000 50.000000)
  1 by 1 by 1 MPI processor grid

create_atoms	1 random 84 1234 box
Created 84 atoms
  using lattice units in orthogonal box = (0.0000000 0.0000000 0.0000000) to (50.000000 50.000000 50.000000)
  create_atoms CPU = 0.000 seconds

mass		1 1.0

pair_style	table linear 20000
pair_coeff	1 1 table_CS_N20k_3.dat LL 6.0
WARNING: 1049 of 20000 force values in table LL are inconsistent with -dE/dr.
WARNING:  Should only be flagged at inflection points (../pair_table.cpp:465)

group		wat type 1
84 atoms in group wat

fix		1 wat nvt temp 100 100 100

timestep	${dt}
timestep	1

thermo		${Nthermo}
thermo		1000

dump		1 all atom ${Ndump} cs.lammpstrj
dump		1 all atom 1000 cs.lammpstrj
dump_modify	1 scale no

run		${Nrun}
run		100000
Neighbor list info ...
  update every 1 steps, delay 10 steps, check yes
  max neighbors/atom: 2000, page size: 100000
  master list distance cutoff = 8
  ghost atom cutoff = 8
  binsize = 4, bins = 13 13 13
  1 neighbor lists, perpetual/occasional/extra = 1 0 0
  (1) pair table, perpetual
      attributes: half, newton on
      pair build: half/bin/atomonly/newton
      stencil: half/bin/3d
      bin: standard
Per MPI rank memory allocation (min/avg/max) = 4.083 | 4.083 | 4.083 Mbytes
Step Temp E_pair E_mol TotEng Press 
       0            0    29.508912            0    29.508912    131.23889 
    1000    107.50633   -3.5867534            0     23.01109     9.054773 
    2000    84.843894   -3.9223761            0    17.068617    7.6087777 
    3000    91.660248   -5.1227078            0    17.554701    7.1588331 
    4000    96.535557   -4.8667946            0    19.016801    7.8140842 
    5000    101.63062   -3.9037005            0    21.240449    9.7899462 
    6000    104.55396   -5.4556344            0    20.411772    8.9994733 
    7000     110.7527   -4.7906741            0    22.610346    10.164144 
    8000    113.91587    -6.001751            0    22.181858    9.5119091 
    9000    103.95524   -5.9639104            0    19.755368    7.2887216 
   10000    91.002056   -5.7497575            0    16.764809    7.9915814 
   11000    94.041002   -5.8713697            0    17.395055    8.9377257 
   12000    113.96434   -5.2836096            0    22.911992    10.174037 
   13000    88.354919   -5.8703799            0    15.989266    5.3421104 
   14000    96.778362   -5.4788358            0    18.464831    8.2247403 
   15000    98.964485    -5.021025            0    19.463505    8.1148502 
   16000    96.268055   -4.2520333            0     19.56538    10.167439 
   17000    93.837168   -2.7726883            0    20.443306    8.3424419 
   18000    102.69699   -3.0181071            0     22.38987    9.4125792 
   19000    100.80441    -3.278359            0    21.661381    8.1829954 
   20000    103.85667   -4.4236863            0    21.271204    8.4225035 
   21000     101.7944   -4.1447808            0    21.039889    8.0171919 
   22000    100.00829   -4.8004857            0    19.942289    8.0221965 
   23000    95.138678   -4.5188748            0    19.019122    6.9576212 
   24000    90.495321   -3.8273548            0    18.561842    6.9299101 
   25000    95.683618   -3.0282255            0    20.644594    8.2627379 
   26000      109.823   -2.9114936            0    24.259511    9.1130088 
   27000    103.66826   -3.8505332            0    21.797744    7.3503137 
   28000    102.74622   -3.7009074            0    21.719251    8.7828236 
   29000    110.14427   -1.9546725            0    25.295817    9.3215378 
   30000    88.449937   -2.4659625            0    19.417192      7.19081 
   31000      111.207   -3.7943951            0    23.719021     8.293843 
   32000    106.18294   -2.1760014            0    24.094427    9.3394891 
   33000    88.470151   -2.7063534            0    19.181802    7.6766691 
   34000    107.23565   -3.4245531            0    23.106323    10.146455 
   35000    113.68297   -2.2717587            0    25.854231    8.9328951 
   36000    99.033563   -2.3043562            0    22.197264    9.1176856 
   37000    98.344866   -2.4157505            0    21.915481    7.1719812 
   38000    95.950922   -2.9776223            0     20.76133    7.3769111 
   39000    112.62521   -1.9414499            0    25.922841    9.1702821 
   40000    101.96043   -2.7735656            0    22.452182    9.2014805 
   41000    97.343972   -3.4545965            0    20.629006    6.6300146 
   42000    95.494189   -2.3271062            0    21.298847    7.4419528 
   43000    107.90747   -3.0429043            0    23.654186    8.0985108 
   44000    107.25171   -3.3823447            0    23.152505    8.1509682 
   45000    84.595106   -3.4113944            0    17.518047    5.8273194 
   46000    89.142575   -2.8989344            0    19.155584     7.766857 
   47000    99.708939   -2.3750958            0    22.293617    8.8234737 
   48000     112.8968   -4.2146845            0    23.716801    9.3759396 
   49000    100.30692   -2.3675694            0    22.449089    8.8093945 
   50000    95.110858   -2.3521383            0    21.178976    7.6597753 
   51000    110.58845   -1.7732926            0    25.587089    9.6297933 
   52000    107.61566   -1.9740995            0    24.650793    9.4264395 
   53000     95.73224   -1.8163308            0    21.868518    7.5653133 
   54000    94.217223   -1.8885334            0    21.421489     8.598553 
   55000    89.717094   -2.6904371            0    19.506221    7.6750254 
   56000    118.38085   -1.8813919            0    27.406886    9.5251095 
   57000    107.05316   -1.8856877            0    24.600038    10.127134 
   58000    110.83981   -1.7122105            0    25.710361    8.8271342 
   59000    98.149018   -2.0451428            0    22.237634    7.6491741 
   60000    110.91856   -1.4457929            0    25.996262    9.0060179 
   61000     103.3148   -3.1172476            0    22.443581    7.6537762 
   62000    83.722249   -2.2764736            0    18.437016     7.501446 
   63000    104.06146   -1.9450627            0    23.800496    8.0162343 
   64000    99.882106   -2.5835179            0    22.128038    7.5116555 
   65000     100.8508   -2.2869078            0     22.66431    8.3322813 
   66000     98.90658   -1.9634377            0    22.506766    7.7131795 
   67000    90.353666   -1.9107667            0    20.443384    7.1563511 
   68000     108.2849   -2.2267508            0    24.563718    7.9781843 
   69000    87.267455   -2.4937572            0    19.096843    7.3262637 
   70000    112.17091   -1.9496545            0    25.802241    9.3996696 
   71000    94.253685   -2.4390574            0    20.879986    6.8875835 
   72000    93.204629   -1.9526236            0    21.106876    7.6647067 
   73000    107.59058   -3.4262339            0    23.192453    9.0496068 
   74000    97.826797   -1.8279871            0     22.37507    7.8354561 
   75000    97.041994   -2.2713349            0    21.737556    7.6806889 
   76000    98.954823   -2.6012589            0     21.88088    7.7249046 
   77000     98.43132   -2.1518553            0    22.200765    8.6486834 
   78000    104.56808   -1.6298088            0    24.241091    8.2599496 
   79000    106.67904    -1.381253            0    25.011914    8.4905626 
   80000    101.28431   -1.7536483            0    23.304824    9.3003895 
   81000    98.752235   -2.6885678            0     21.74345    8.0545611 
   82000     94.49675   -2.5437695            0     20.83541    7.6396411 
   83000    107.09187   -2.3065532            0    24.188751    10.197968 
   84000    103.41579   -2.4956232            0    23.090192    8.9728909 
   85000    96.966982  -0.76993904            0    23.220394    8.4043529 
   86000    111.12071  -0.59238577            0    26.899683    9.3749796 
   87000    96.447179   -1.7095012            0    22.152229    8.1941911 
   88000    99.820697   -1.4410811            0    23.255282    8.1849636 
   89000    97.153268   -1.2420486            0    22.794373    8.8282956 
   90000     100.4507  -0.77837697            0    24.073853    10.776134 
   91000    104.84752   -1.8963998            0    24.043636    9.0294941 
   92000    91.139153   -2.1428515            0    20.405634    8.0624161 
   93000    97.065224   -2.5533354            0    21.461303    7.3868942 
   94000     121.9873   -1.7228271            0    28.457713    9.4789532 
   95000    95.096585    -1.366361            0    22.161222    8.3000265 
   96000    91.940219   -1.4499306            0    21.296745    6.8545703 
   97000    94.997174   -2.0802021            0    21.422786    6.4783017 
   98000     123.3412   -2.3943442            0    28.121161    9.5906299 
   99000    106.80814   -2.5696202            0    23.855487    9.8638553 
  100000     107.9325   -2.2362647            0    24.467016    8.1463967 
Loop time of 2.01125 on 1 procs for 100000 steps with 84 atoms

Performance: 4295.845 ns/day, 0.006 hours/ns, 49720.423 timesteps/s
32.4% CPU use with 1 MPI tasks x no OpenMP threads

MPI task timing breakdown:
Section |  min time  |  avg time  |  max time  |%varavg| %total
---------------------------------------------------------------
Pair    | 0.38683    | 0.38683    | 0.38683    |   0.0 | 19.23
Neigh   | 0.10793    | 0.10793    | 0.10793    |   0.0 |  5.37
Comm    | 0.42691    | 0.42691    | 0.42691    |   0.0 | 21.23
Output  | 0.01683    | 0.01683    | 0.01683    |   0.0 |  0.84
Modify  | 0.50702    | 0.50702    | 0.50702    |   0.0 | 25.21
Other   |            | 0.5657     |            |       | 28.13

Nlocal:        84.0000 ave          84 max          84 min
Histogram: 1 0 0 0 0 0 0 0 0 0
Nghost:        130.000 ave         130 max         130 min
Histogram: 1 0 0 0 0 0 0 0 0 0
Neighs:        62.0000 ave          62 max          62 min
Histogram: 1 0 0 0 0 0 0 0 0 0

Total # of neighbors = 62
Ave neighs/atom = 0.73809524
Neighbor list builds = 4228
Dangerous builds = 91
undump		1
Total wall time: 0:00:02
