LAMMPS (29 Sep 2021 - Update 2)
# Input file for the confinement simulation of a water-methanol mixture
# inside a graphene slit pore.
# Slit width: 6.5 A

units		real
atom_style	bond
#boundary	p p f

bond_style	harmonic

variable        dt      equal 1
variable        Temp    equal 100.0
variable	pres	equal 1.0
variable	Ntot	equal 25000
variable	chi	equal 0.1
variable	Nmet	equal ${chi}*${Ntot}
variable	Nmet	equal 0.1*${Ntot}
variable	Nmet	equal 0.1*25000
variable	Nwat	equal ${Ntot}-${Nmet}
variable	Nwat	equal 25000-${Nmet}
variable	Nwat	equal 25000-2500
variable	slit	equal 12.5
variable        Nrun    equal 1.0e3
variable        Nthermo equal ${Nrun}/1000
variable        Nthermo equal 1000/1000
variable        Ndump   equal ${Nrun}/100
variable        Ndump   equal 1000/100
#variable	Nthermo	equal 1
#variable	Ndump	equal 1

variable	sq32	equal sqrt(3)/2
variable	acc	equal 1.42
variable	dist	equal sqrt(3)*${acc}
variable	dist	equal sqrt(3)*1.42
variable	ax	equal ${dist}*${sq32}
variable	ax	equal 2.45951214674781*${sq32}
variable	ax	equal 2.45951214674781*0.866025403784439
variable	ay	equal ${dist}*0.5
variable	ay	equal 2.45951214674781*0.5
variable	tr	equal 1/3

# Region limited to the graphene slit-pore extend. Changes later.
region		box block -24.5 24.5 -25.5 25.5 -7.0 +7.0
create_box	4 box bond/types 1 extra/bond/per/atom 1
Created orthogonal box = (-24.500000 -25.500000 -7.0000000) to (24.500000 25.500000 7.0000000)
  1 by 1 by 1 MPI processor grid
lattice		custom 1.0 		a1 	${ax} 	${ay} 	0.0 			a2 	${ax}  -${ay} 	0.0 			a3 	 0.0 	 0.0    1.633 			basis	 0.0     0.0    0.0     		basis   ${tr} 	${tr} 	0.0
lattice		custom 1.0 		a1 	2.13 	${ay} 	0.0 			a2 	${ax}  -${ay} 	0.0 			a3 	 0.0 	 0.0    1.633 			basis	 0.0     0.0    0.0     		basis   ${tr} 	${tr} 	0.0
lattice		custom 1.0 		a1 	2.13 	1.22975607337391 	0.0 			a2 	${ax}  -${ay} 	0.0 			a3 	 0.0 	 0.0    1.633 			basis	 0.0     0.0    0.0     		basis   ${tr} 	${tr} 	0.0
lattice		custom 1.0 		a1 	2.13 	1.22975607337391 	0.0 			a2 	2.13  -${ay} 	0.0 			a3 	 0.0 	 0.0    1.633 			basis	 0.0     0.0    0.0     		basis   ${tr} 	${tr} 	0.0
lattice		custom 1.0 		a1 	2.13 	1.22975607337391 	0.0 			a2 	2.13  -1.22975607337391 	0.0 			a3 	 0.0 	 0.0    1.633 			basis	 0.0     0.0    0.0     		basis   ${tr} 	${tr} 	0.0
lattice		custom 1.0 		a1 	2.13 	1.22975607337391 	0.0 			a2 	2.13  -1.22975607337391 	0.0 			a3 	 0.0 	 0.0    1.633 			basis	 0.0     0.0    0.0     		basis   0.333333333333333 	${tr} 	0.0
lattice		custom 1.0 		a1 	2.13 	1.22975607337391 	0.0 			a2 	2.13  -1.22975607337391 	0.0 			a3 	 0.0 	 0.0    1.633 			basis	 0.0     0.0    0.0     		basis   0.333333333333333 	0.333333333333333 	0.0
Lattice spacing in x,y,z = 4.2600000 2.4595121 1.6330000

region		plane1 block -24.5 24.5 -25.5 25.5 -6.25 -4.0
region		plane2 block -24.5 24.5 -25.5 25.5  4.0 6.25

create_atoms	1 region plane1
Created 943 atoms
  using lattice units in orthogonal box = (-24.500000 -25.500000 -7.0000000) to (24.500000 25.500000 7.0000000)
  create_atoms CPU = 0.002 seconds
create_atoms	1 region plane2
Created 943 atoms
  using lattice units in orthogonal box = (-24.500000 -25.500000 -7.0000000) to (24.500000 25.500000 7.0000000)
  create_atoms CPU = 0.001 seconds

lattice		sc 1.0
Lattice spacing in x,y,z = 1.0000000 1.0000000 1.0000000

change_box      all x final -42.0 42.0                     y final -42.0 42.0                     z final -51.0 51.0
Changing box ...
  orthogonal box = (-42.000000 -25.500000 -7.0000000) to (42.000000 25.500000 7.0000000)
  orthogonal box = (-42.000000 -42.000000 -7.0000000) to (42.000000 42.000000 7.0000000)
  orthogonal box = (-42.000000 -42.000000 -51.000000) to (42.000000 42.000000 51.000000)

region          in1 block -41.0 41.0 -41.0 41.0 -49.0 -8.0
region          in2 block -41.0 41.0 -41.0 41.0  8.0 49.0
region          in3 block -41.0 41.0 -41.0 41.0 -4.5 2.0
region          in_1 union 3 in1 in2 in3

region          in4 block -40.0 40.0 -40.0 40.0 -46.0 -11.0
region          in5 block -40.0 40.0 -40.0 40.0 11.0 46.0
region          in6 block -40.0 40.0 -40.0 40.0 -5.0 5.0
region          in_2 union 3 in4 in5 in6

lattice         custom 1.0                 a1      ${ax}   ${ay}   0.0                     a2      ${ax}  -${ay}   0.0                     a3       0.0     0.0    6.0                     basis    0.0     0.0    0.0                     basis   ${tr}   ${tr}   0.0
lattice         custom 1.0                 a1      2.13   ${ay}   0.0                     a2      ${ax}  -${ay}   0.0                     a3       0.0     0.0    6.0                     basis    0.0     0.0    0.0                     basis   ${tr}   ${tr}   0.0
lattice         custom 1.0                 a1      2.13   1.22975607337391   0.0                     a2      ${ax}  -${ay}   0.0                     a3       0.0     0.0    6.0                     basis    0.0     0.0    0.0                     basis   ${tr}   ${tr}   0.0
lattice         custom 1.0                 a1      2.13   1.22975607337391   0.0                     a2      2.13  -${ay}   0.0                     a3       0.0     0.0    6.0                     basis    0.0     0.0    0.0                     basis   ${tr}   ${tr}   0.0
lattice         custom 1.0                 a1      2.13   1.22975607337391   0.0                     a2      2.13  -1.22975607337391   0.0                     a3       0.0     0.0    6.0                     basis    0.0     0.0    0.0                     basis   ${tr}   ${tr}   0.0
lattice         custom 1.0                 a1      2.13   1.22975607337391   0.0                     a2      2.13  -1.22975607337391   0.0                     a3       0.0     0.0    6.0                     basis    0.0     0.0    0.0                     basis   0.333333333333333   ${tr}   0.0
lattice         custom 1.0                 a1      2.13   1.22975607337391   0.0                     a2      2.13  -1.22975607337391   0.0                     a3       0.0     0.0    6.0                     basis    0.0     0.0    0.0                     basis   0.333333333333333   0.333333333333333   0.0
Lattice spacing in x,y,z = 4.2600000 2.4595121 6.0000000

create_atoms	4 region in_1 subset ${Nwat} 1234
create_atoms	4 region in_1 subset 22500 1234
Created 22500 atoms
  using lattice units in orthogonal box = (-42.000000 -42.000000 -51.000000) to (42.000000 42.000000 51.000000)
  create_atoms CPU = 0.015 seconds

lattice		sc 6.0 origin 0.5 0.5 0.5
Lattice spacing in x,y,z = 6.0000000 6.0000000 6.0000000

molecule	dimer dimer.txt
Read molecule template dimer:
  1 molecules
  0 fragments
  2 atoms with max type 2
  1 bonds with max type 1
  0 angles with max type 0
  0 dihedrals with max type 0
  0 impropers with max type 0
create_atoms	1 region in_2 mol dimer 4321 subset ${Nmet} 1221
create_atoms	1 region in_2 mol dimer 4321 subset 2500 1221
WARNING: Molecule attributes do not match system attributes (../molecule.cpp:1738)
Created 5000 atoms
  using lattice units in orthogonal box = (-42.000000 -42.000000 -51.000000) to (42.000000 42.000000 51.000000)
  create_atoms CPU = 0.003 seconds

bond_coeff	1 0.0 1.0

lattice		sc 1.0
Lattice spacing in x,y,z = 1.0000000 1.0000000 1.0000000

change_box      all x final -42.0 42.0                     y final -42.0 42.0                     z final -51.0 51.0
Changing box ...
  orthogonal box = (-42.000000 -42.000000 -51.000000) to (42.000000 42.000000 51.000000)
  orthogonal box = (-42.000000 -42.000000 -51.000000) to (42.000000 42.000000 51.000000)
  orthogonal box = (-42.000000 -42.000000 -51.000000) to (42.000000 42.000000 51.000000)

mass		1 12.0
mass		2 15.0
mass		3 17.0
mass		4 18.0

pair_style	table linear 20000
pair_coeff	2 * table_LJ_N20k_2j.dat LL 10.0
WARNING: 1 of 20000 force values in table LL are inconsistent with -dE/dr.
WARNING:  Should only be flagged at inflection points (../pair_table.cpp:465)
pair_coeff	2 2 table_LJ_N20k_22.dat LL 6.0
WARNING: 1 of 20000 force values in table LL are inconsistent with -dE/dr.
WARNING:  Should only be flagged at inflection points (../pair_table.cpp:465)
pair_coeff	1 * table_LJ_N20k_1j.dat LS 10.0
WARNING: 1 of 20000 force values in table LS are inconsistent with -dE/dr.
WARNING:  Should only be flagged at inflection points (../pair_table.cpp:465)
pair_coeff	1 1 table_LJ_N20k_11.dat SS 5.0
WARNING: 3220 of 20000 force values in table SS are inconsistent with -dE/dr.
WARNING:  Should only be flagged at inflection points (../pair_table.cpp:465)
pair_coeff	3 3 table_CS_N20k_34.dat LL 6.0
WARNING: 3 of 20000 force values in table LL are inconsistent with -dE/dr.
WARNING:  Should only be flagged at inflection points (../pair_table.cpp:465)
pair_coeff	3 4 table_CS_N20k_34.dat LL 6.0
WARNING: 3 of 20000 force values in table LL are inconsistent with -dE/dr.
WARNING:  Should only be flagged at inflection points (../pair_table.cpp:465)
pair_coeff	4 4 table_CS_N20k_34.dat LL 6.0
WARNING: 3 of 20000 force values in table LL are inconsistent with -dE/dr.
WARNING:  Should only be flagged at inflection points (../pair_table.cpp:465)

group		graphene type 1
1886 atoms in group graphene
group           methyl type 2
2500 atoms in group methyl
group           hydrox type 3
2500 atoms in group hydrox
group           methanol type 2 3
5000 atoms in group methanol
group           water type 4
22500 atoms in group water
group           all type 1:4
29386 atoms in group all

fix		freeze graphene setforce 0.0 0.0 0.0

#minimize 	1.0e-4 1.0e-6 100 1000

fix             1 methanol shake 0.0001 20 0 b 1 mol dimer
    2500 = # of size 2 clusters
       0 = # of size 3 clusters
       0 = # of size 4 clusters
       0 = # of frozen angles
  find clusters CPU = 0.003 seconds
fix		2 all nvt temp ${Temp} ${Temp} $(100*dt)
fix		2 all nvt temp 100 ${Temp} $(100*dt)
fix		2 all nvt temp 100 100 $(100*dt)
fix		2 all nvt temp 100 100 100

#run		100

#neigh_modify	one 10000

#fix		2 all nvt temp ${Temp} ${Temp} $(100*dt)

timestep	${dt}
timestep	1

thermo_style	custom step temp pe ke etotal density press
thermo          ${Nthermo}
thermo          1

dump            1 all atom ${Ndump} cs.lammpstrj
dump            1 all atom 10 cs.lammpstrj

write_data      conf_100.dat nocoeff
System init for write_data ...
Neighbor list info ...
  update every 1 steps, delay 10 steps, check yes
  max neighbors/atom: 2000, page size: 100000
  master list distance cutoff = 12
  ghost atom cutoff = 12
  binsize = 6, bins = 14 14 17
  1 neighbor lists, perpetual/occasional/extra = 1 0 0
  (1) pair table, perpetual
      attributes: half, newton on
      pair build: half/bin/newton
      stencil: half/bin/3d
      bin: standard

run             ${Nrun}
run             1000
Per MPI rank memory allocation (min/avg/max) = 29.93 | 29.93 | 29.93 Mbytes
Step Temp PotEng KinEng TotEng Density Press 
       0            0    766755.98            0    766755.98    1.1712222    579022.21 
       1    873.71099    686167.75    74359.004    760526.75    1.1712222    522759.17 
       2     2780.371    517848.99     236629.3    754478.29    1.1712222     404799.1 
       3    4650.7874    355514.07       395815    751329.07    1.1712222    291256.27 
       4    6060.6138     232501.5    515801.24    748302.73    1.1712222    205289.61 
       5    6995.4341    148230.45    595361.07    743591.52    1.1712222    146422.59 
       6    7553.7176    93560.753    642874.96    736435.72    1.1712222    108225.79 
       7    7853.1628    59123.427    668359.87     727483.3    1.1712222    84135.455 
       8    7983.3157    37705.243    679436.81    717142.05    1.1712222    69059.851 
       9    8006.0248    24436.791    681369.51     705806.3    1.1712222    59571.689 
      10    7960.0099    16315.551    677453.32    693768.87    1.1712222    53569.711 
      11    7864.9964    11833.964    669366.99    681200.96    1.1712222    50005.387 
      12     7715.247    11431.728    656622.26    668053.99    1.1712222    49182.638 
      13    7453.3976    20078.181    634337.02     654415.2    1.1712222    54582.131 
      14    7044.3448    42953.793    599523.72    642477.51    1.1712222    69970.696 
      15    6612.2966    67643.247    562753.36     630396.6    1.1712222    86569.913 
      16    6251.5176    87892.478     532048.5    619940.98    1.1712222    100135.36 
      17    6029.4799    95892.647    513151.52    609044.17    1.1712222    105088.61 
      18    5918.9102     95164.76    503741.25    598906.01    1.1712222    103970.72 
      19    5890.2901     87141.93    501305.48    588447.41    1.1712222    97718.169 
      20     5882.022    77133.707     500601.8    577735.51    1.1712222    90049.585 
      21     5828.337    71415.433    496032.83    567448.27    1.1712222    85398.861 
      22    5737.1679    68913.584     488273.7    557187.28    1.1712222    82997.385 
      23    5637.9197    67021.718    479826.97    546848.68    1.1712222    81022.784 
      24    5535.3845    65434.685    471100.49    536535.18    1.1712222    79270.978 
      25    5420.5605    65190.245    461328.16     526518.4    1.1712222    78483.074 
      26    5305.3733    65193.327    451524.91    516718.24    1.1712222    77886.056 
      27    5204.6176    63897.904    442949.88    506847.79    1.1712222    76379.232 
      28    5109.3519    62400.744     434842.1    497242.84    1.1712222     74748.41 
      29    5015.2728    60939.113     426835.3    487774.41    1.1712222    73149.813 
      30    4919.5004    59705.452    418684.39    478389.84    1.1712222    71713.521 
      31    4811.2692    59741.886    409473.14    469215.03    1.1712222    71175.263 
      32    4689.6298    61273.425    399120.77     460394.2    1.1712222    71701.945 
      33     4571.979    62639.535    389107.85    451747.39    1.1712222    72122.646 
      34    4471.1349    62715.427     380525.3    443240.73    1.1712222    71649.596 
      35    4384.0357    61763.028    373112.55    434875.57    1.1712222    70465.928 
      36    4300.3021    60745.927    365986.22    426732.15    1.1712222    69250.011 
      37    4217.2561    59854.379    358918.42    418772.79    1.1712222    68132.641 
      38     4136.802    58822.558     352071.2    410893.76    1.1712222    66922.044 
      39    4056.3972    58020.421    345228.18     403248.6    1.1712222    65887.097 
      40    3978.2996     57137.82    338581.52    395719.34    1.1712222    64804.123 
      41    3903.5976    56123.893    332223.85    388347.75    1.1712222    63640.234 
      42    3831.1603    55052.383    326058.92    381111.31    1.1712222    62445.224 
      43    3759.5021    54074.767     319960.3    374035.07    1.1712222    61326.123 
      44    3688.3782    53182.367    313907.16    367089.52    1.1712222    60274.759 
      45    3617.6979    52402.632    307891.76    360294.39    1.1712222    59311.424 
      46    3550.3723    51521.519    302161.88    353683.39    1.1712222    58288.586 
      47    3490.1317    50075.579    297034.97    347110.55    1.1712222    56873.061 
      48    3431.1019    48688.139    292011.11    340699.25    1.1712222    55508.047 
      49    3371.1091     47548.86     286905.3    334454.16    1.1712222    54326.273 
      50    3314.4474    46216.578    282082.99    328299.56    1.1712222    53014.712 
      51    3260.5074    44716.672    277492.31    322208.99    1.1712222    51589.508 
      52    3204.4139    43570.677    272718.35    316289.03    1.1712222    50421.614 
      53    3145.6579    42742.018     267717.8    310459.82    1.1712222    49480.219 
      54    3084.5735    42272.954    262519.09    304792.04    1.1712222    48799.432 
      55    3024.9797    41784.887    257447.24    299232.13    1.1712222    48111.454 
      56    2968.1499    41153.476    252610.61    293764.09    1.1712222    47328.446 
      57    2911.5407    40650.717    247792.77    288443.49    1.1712222     46643.92 
      58    2855.4789    40227.243    243021.51    283248.76    1.1712222    46021.962 
      59    2801.5045    39732.628    238427.91    278160.54    1.1712222    45356.326 
      60    2749.2293    39208.098    233978.92    273187.01    1.1712222    44676.569 
      61    2698.8504    38651.777    229691.31    268343.09    1.1712222    43982.608 
      62    2651.8187    37881.777    225688.59    263570.37    1.1712222    43143.826 
      63    2606.6394    37057.888     221843.5    258901.39    1.1712222    42273.881 
      64    2562.2051    36294.348    218061.83    254356.18    1.1712222    41453.653 
      65    2520.2965     35386.28    214495.11    249881.39    1.1712222    40536.342 
      66    2480.5128    34371.302    211109.24    245480.54    1.1712222    39548.307 
      67    2439.8092    33515.593    207645.08    241160.67    1.1712222    38675.938 
      68     2395.729    33060.475    203893.54    236954.01    1.1712222    38089.955 
      69    2349.5124    32889.033    199960.18    232849.21    1.1712222    37708.198 
      70    2304.8453    32681.532    196158.68    228840.22    1.1712222    37307.305 
      71    2263.8293    32219.547    192667.93    224887.48    1.1712222    36732.555 
      72    2224.4174    31718.208     189313.7    221031.91    1.1712222    36136.992 
      73    2185.0976     31301.53    185967.31    217268.84    1.1712222    35606.958 
      74    2146.0396    30942.378     182643.2    213585.57    1.1712222    35122.673 
      75    2107.5824    30613.923    179370.22    209984.14    1.1712222    34665.575 
      76    2070.1263    30282.981    176182.44    206465.42    1.1712222    34212.501 
      77    2034.2171      29891.4     173126.3     203017.7    1.1712222    33721.975 
      78    1999.4157    29476.224    170164.46    199640.69    1.1712222    33219.735 
      79       1965.3    29091.378    167260.98    196352.35    1.1712222    32744.453 
      80    1933.1501    28598.982    164524.79    193123.77    1.1712222    32197.841 
      81    1902.9926      27988.9    161958.17    189947.07    1.1712222    31572.187 
      82    1873.1916    27420.874     159421.9    186842.77    1.1712222    30980.231 
      83    1843.2112    26932.259    156870.35    183802.61    1.1712222    30447.393 
      84    1813.2481    26500.272    154320.28    180820.55    1.1712222    29957.272 
      85    1783.0385    26146.129    151749.22    177895.35    1.1712222    29524.581 
      86    1752.0999    25923.957    149116.13    175040.09    1.1712222     29188.02 
      87    1721.0945     25774.97    146477.35    172252.32    1.1712222    28906.486 
      88    1691.2987    25576.195    143941.52    169517.72    1.1712222    28593.329 
      89    1663.0932    25303.627    141541.03    166844.66    1.1712222    28232.494 
      90     1636.686     24932.95     139293.6    164226.54    1.1712222    27806.709 
      91    1611.8431    24472.468    137179.28    161651.75    1.1712222     27321.16 
      92    1587.3621    24038.481    135095.78    159134.26    1.1712222     26858.06 
      93    1562.7952    23665.118    133004.96    156670.08    1.1712222     26440.98 
      94    1538.3946    23322.484    130928.29    154250.78    1.1712222    26048.443 
      95    1514.1002    23019.855    128860.67    151880.52    1.1712222    25687.108 
      96    1489.9997    22751.974    126809.55    149561.52    1.1712222    25353.382 
      97    1466.5104    22474.766    124810.44    147285.21    1.1712222    25015.882 
      98    1443.6976    22186.788    122868.91     145055.7    1.1712222    24673.835 
      99    1421.6235    21880.116    120990.25    142870.36    1.1712222    24321.511 
     100    1400.2963    21550.825    119175.15    140725.98    1.1712222    23955.978 
     101    1379.6482    21210.004    117417.85    138627.86    1.1712222    23585.368 
     102    1359.9562    20822.721    115741.92    136564.64    1.1712222    23184.604 
     103    1340.9897    20409.021    114127.74    134536.76    1.1712222    22767.777 
     104    1322.1287    20025.586    112522.53    132548.12    1.1712222    22374.751 
     105    1303.0778    19696.388    110901.17    130597.56    1.1712222    22022.244 
     106     1283.894    19415.497    109268.48    128683.98    1.1712222    21706.106 
     107    1264.7787    19164.933    107641.64    126806.57    1.1712222    21413.781 
     108    1245.9256    18926.841    106037.11    124963.95    1.1712222    21132.773 
     109    1227.2766    18704.031    104449.95    123153.98    1.1712222    20864.949 
     110    1208.4335    18534.124    102846.27    121380.39    1.1712222    20636.848 
     111    1189.2221    18435.886    101211.24    119647.12    1.1712222    20461.782 
     112    1170.0966    18366.432    99583.525    117949.96    1.1712222    20309.438 
     113    1151.5952    18276.182    98008.923     116285.1    1.1712222    20144.837 
     114    1133.8184    18156.232    96495.992    114652.22    1.1712222    19961.634 
     115    1116.5477    18026.491    95026.127    113052.62    1.1712222     19773.74 
     116    1099.6333    17899.934    93586.599    111486.53    1.1712222     19590.19 
     117    1083.1437    17768.062     92183.21    109951.27    1.1712222    19404.838 
     118    1067.1868    17621.114     90825.17    108446.28    1.1712222    19210.804 
     119    1051.8844    17447.473    89522.823     106970.3    1.1712222    18999.856 
     120    1037.3425    17236.075    88285.203    105521.28    1.1712222    18764.085 
     121    1023.5271    16987.939    87109.417    104097.36    1.1712222    18504.032 
     122    1010.2382    16720.264    85978.436     102698.7    1.1712222    18231.691 
     123    997.29641    16448.079        84877    101325.08    1.1712222    17957.542 
     124    984.66665    16172.696    83802.118    99974.814    1.1712222    17682.414 
     125    972.28471    15897.242    82748.327     98645.57    1.1712222    17408.365 
     126    959.90675    15644.211    81694.874    97339.085    1.1712222    17151.244 
     127    947.32731    15431.541    80624.275    96055.816    1.1712222    16923.633 
     128    934.57654    15257.745    79539.094    94796.839    1.1712222    16724.575 
     129    921.96713    15093.844    78465.944    93559.788    1.1712222    16533.673 
     130    909.77765    14913.891    77428.532    92342.423    1.1712222    16332.659 
     131    898.00998    14718.741    76427.021    91145.762    1.1712222    16122.185 
     132    886.58192    14515.711    75454.412    89970.123    1.1712222    15907.375 
     133     875.4256    14308.377     74504.93    88813.307    1.1712222    15690.563 
     134    864.39582    14110.713    73566.217     87676.93    1.1712222    15481.611 
     135    853.46282    13924.954    72635.741    86560.696    1.1712222    15282.053 
     136    842.76754    13737.852    71725.497    85463.349    1.1712222    15082.556 
     137    832.46274    13534.682    70848.486    84383.167    1.1712222    14872.737 
     138    822.54356    13315.121    70004.293    83319.413    1.1712222    14652.331 
     139    812.84268    13094.054    69178.679    82272.734    1.1712222    14431.804 
     140    803.20262    12885.137    68358.242    81243.378    1.1712222    14220.728 
     141    793.58419     12691.28    67539.645    80230.925    1.1712222    14021.127 
     142    784.04155     12507.24    66727.498    79234.739    1.1712222    13829.306 
     143    774.63958    12326.748    65927.324    78254.072    1.1712222    13640.839 
     144    765.37675    12149.668    65138.992     77288.66    1.1712222    13455.605 
     145     756.1871    11981.823    64356.887     76338.71    1.1712222    13277.683 
     146    747.00692    11828.748    63575.589    75404.337    1.1712222    13110.952 
     147    737.82066    11691.611    62793.773    74485.384    1.1712222    12956.233 
     148    728.65531    11567.931    62013.737    73581.668    1.1712222    12811.807 
     149    719.57041    11452.701    61240.547    72693.248    1.1712222    12674.218 
     150    710.66493    11336.939    60482.627    71819.567    1.1712222    12537.197 
     151    702.02587    11212.386    59747.382    70959.768    1.1712222    12394.963 
     152    693.66713    11077.683    59035.994    70113.677    1.1712222    12246.584 
     153    685.55554    10935.508    58345.641    69281.149    1.1712222     12093.95 
     154    677.65143    10788.689    57672.945    68461.634    1.1712222    11939.033 
     155    669.90343    10641.311    57013.535    67654.846    1.1712222    11784.656 
     156    662.25269    10498.245    56362.402    66860.648    1.1712222    11634.236 
     157    654.65324    10363.194    55715.636     66078.83    1.1712222    11490.341 
     158    647.07576    10238.543    55070.738    65309.281    1.1712222    11354.636 
     159    639.51201    10124.966     54427.01    64551.975    1.1712222    11227.607 
     160    631.98532    10020.359    53786.434    63806.793    1.1712222    11107.777 
     161    624.54025    9920.5652    53152.807    63073.372    1.1712222    10992.226 
     162    617.21092    9822.4311    52529.029     62351.46    1.1712222    10878.743 
     163    610.01115    9724.7428    51916.277    61641.019    1.1712222     10766.47 
     164    602.95317    9626.2377    51315.592     60941.83    1.1712222    10654.513 
     165     596.0534    9525.2176    50728.373    60253.591    1.1712222    10541.669 
     166     589.3289    9420.0092     50156.07     59576.08    1.1712222    10426.759 
     167     582.8022    9308.3915    49600.602    58908.994    1.1712222    10308.207 
     168    576.49534    9187.9518    49063.844    58251.795    1.1712222    10184.289 
     169    570.40026    9058.8743    48545.109    57603.983    1.1712222    10055.087 
     170    564.46175    8925.8036      48039.7    56965.503    1.1712222    9923.8376 
     171    558.61733    8794.2474    47542.298    56336.545    1.1712222    9794.3942 
     172    552.85725    8664.8638    47052.074    55716.938    1.1712222    9667.1944 
     173    547.22088    8533.5965    46572.379    55105.976    1.1712222    9539.3551 
     174    541.72825    8398.2869    46104.918    54503.204    1.1712222    9409.3255 
     175    536.34688    8261.7668    45646.924    53908.691    1.1712222    9279.0852 
     176    531.02691    8128.2859    45194.158    53322.444    1.1712222    9151.6031 
     177    525.73017    8000.8869    44743.368    52744.255    1.1712222    9028.9937 
     178    520.42342    7882.2858    44291.725    52174.011    1.1712222    8913.1618 
     179    515.07708    7775.1334    43836.714    51611.847    1.1712222     8805.979 
     180     509.6858    7679.9445    43377.878    51057.823    1.1712222     8707.815 
     181    504.27701    7594.2775    42917.551    50511.829    1.1712222    8616.9509 
     182    498.89432    7514.2537    42459.446      49973.7    1.1712222    8530.6642 
     183    493.57696    7436.4085    42006.901    49443.309    1.1712222     8446.514 
     184    488.35064    7358.4456    41562.104     48920.55    1.1712222    8362.8794 
     185    483.22751     7279.197    41126.089    48405.286    1.1712222    8278.9166 
     186    478.20499    7198.7032    40698.637    47897.341    1.1712222    8194.6286 
     187    473.26283     7118.582    40278.025    47396.607    1.1712222    8111.1294 
     188    468.37199    7041.3389     39861.78    46903.118    1.1712222    8030.1686 
     189    463.51754    6968.2573    39448.632    46416.889    1.1712222    7952.6354 
     190    458.71282    6898.0378    39039.716    45937.754    1.1712222    7877.6079 
     191    453.98823    6827.8219     38637.62    45465.441    1.1712222    7803.0784 
     192    449.36989      6755.22    38244.566    44999.786    1.1712222    7727.3645 
     193    444.87295    6678.8176    37861.845    44540.662    1.1712222    7649.4818 
     194    440.50711    6597.6242    37490.281    44087.905    1.1712222    7568.7282 
     195    436.27781     6510.953    37130.337     43641.29    1.1712222     7484.618 
     196    432.18144    6418.8931    36781.707      43200.6    1.1712222    7397.2038 
     197    428.20118    6322.6781    36442.959    42765.637    1.1712222    7307.3505 
     198     424.3079    6224.7012    36111.613    42336.314    1.1712222    7216.7192 
     199    420.46961    6127.6461    35784.947    41912.593    1.1712222    7127.1918 
     200     416.6655    6033.2171     35461.19    41494.407    1.1712222    7039.9596 
     201    412.89065    5941.6982    35139.923    41081.622    1.1712222    6955.2138 
     202    409.14824    5852.6887    34821.418    40674.107    1.1712222    6872.6667 
     203    405.44096    5765.8843    34505.902    40271.786    1.1712222    6792.0988 
     204    401.76762    5681.3019    34193.275    39874.577    1.1712222    6713.5205 
     205    398.12276    5599.3463    33883.071    39482.418    1.1712222    6637.2166 
     206    394.49909    5520.6382    33574.672     39095.31    1.1712222     6563.612 
     207    390.89314    5445.4145    33267.779    38713.194    1.1712222    6492.8864 
     208    387.30861    5373.3238     32962.71    38336.034    1.1712222    6424.7797 
     209    383.75465    5303.4964    32660.244     37963.74    1.1712222    6358.6862 
     210    380.24289    5234.9035    32361.367    37596.271    1.1712222    6293.8758 
     211    376.78716    5166.2733    32067.261    37233.534    1.1712222    6229.4588 
     212    373.40061    5096.3376    31779.041    36875.379    1.1712222    6164.5339 
     213    370.08611    5024.7355    31496.954    36521.689    1.1712222    6098.8387 
     214    366.83376    4952.2821    31220.156    36172.438    1.1712222    6032.9431 
     215    363.63122    4880.0009    30947.596    35827.597    1.1712222    5967.5585 
     216    360.47207    4808.3429    30678.731    35487.073    1.1712222    5902.9978 
     217    357.35581    4737.2675    30413.515    35150.783    1.1712222     5839.227 
     218    354.28508    4666.4718    30152.174    34818.646    1.1712222    5776.0271 
     219    351.26291    4595.5952    29894.966    34490.561    1.1712222    5713.1501 
     220    348.29038    4524.4812    29641.982    34166.464    1.1712222    5650.4791 
     221    345.36587    4453.1955    29393.086    33846.281    1.1712222     5588.066 
     222    342.48641    4381.9303    29148.023    33529.953    1.1712222    5526.0453 
     223    339.64898    4310.8702    28906.538    33217.408    1.1712222    5464.5471 
     224    336.84991    4240.2513    28668.317    32908.568    1.1712222    5403.7389 
     225    334.08371    4170.4893    28432.894    32603.383    1.1712222    5343.9129 
     226    331.34427    4102.0759    28199.748    32301.824    1.1712222    5285.4196 
     227    328.62809    4035.2725    27968.582    32003.855    1.1712222    5228.4408 
     228    325.93542    3970.0032    27739.416     31709.42    1.1712222    5172.9217 
     229    323.26773    3906.0848    27512.377    31418.462    1.1712222    5118.7364 
     230    320.62645    3843.3619    27287.585    31130.947    1.1712222     5065.779 
     231    318.01476    3781.5232    27065.312    30846.835    1.1712222    5013.8312 
     232    315.43829    3720.0283    26846.037    30566.065    1.1712222    4962.5117 
     233     312.9029    3658.3083    26630.257    30288.565    1.1712222    4911.4211 
     234    310.41267    3595.9608    26418.321    30014.282    1.1712222    4860.2765 
     235    307.97016    3532.7189    26210.446    29743.165    1.1712222    4808.8891 
     236     305.5774    3468.3435    26006.805    29475.148    1.1712222    4757.0908 
     237    303.23564    3402.6405    25807.505    29210.145    1.1712222    4704.7484 
     238    300.94363    3335.6438    25612.438    28948.082    1.1712222    4651.8813 
     239    298.69587     3267.759    25421.138    28688.897    1.1712222    4598.7678 
     240    296.48262    3199.7738    25232.775    28432.549    1.1712222    4545.9545 
     241    294.29147    3132.7052    25046.292    28178.997    1.1712222    4494.1538 
     242     292.1098    3067.6152    24860.617    27928.232    1.1712222     4444.101 
     243     289.9278    3005.3349    24674.913    27680.248    1.1712222    4396.3722 
     244    287.74168      2946.18    24488.859    27435.039    1.1712222    4351.1859 
     245    285.55549    2889.7935    24302.798    27192.592    1.1712222    4308.2781 
     246    283.37962    2835.2323    24117.616    26952.849    1.1712222    4266.9813 
     247    281.22578    2781.4416    23934.309    26715.751    1.1712222    4226.5432 
     248    279.10121     2727.749    23753.493    26481.242    1.1712222    4186.4807 
     249    277.00597    2674.1271    23575.173    26249.301    1.1712222    4146.7606 
     250    274.93448    2621.0307    23398.875    26019.905    1.1712222    4107.6953 
     251    272.87945    2569.0764    23223.977    25793.054    1.1712222    4069.7052 
     252    270.83568    2518.6921    23050.038     25568.73    1.1712222    4033.0823 
     253    268.80196     2469.957    22876.954    25346.911    1.1712222    3997.8788 
     254    266.78116    2422.5985    22704.969    25127.568    1.1712222    3963.8992 
     255    264.77889    2376.0936    22534.562    24910.656    1.1712222    3930.7803 
     256     262.8017    2329.8598    22366.289    24696.149    1.1712222     3898.105 
     257    260.85541    2283.3502    22200.646    24483.997    1.1712222    3865.4968 
     258    258.94409    2236.1863    22037.979    24274.165    1.1712222    3832.6859 
     259     257.0698    2188.1519    21878.464    24066.616    1.1712222    3799.5217 
     260    255.23304    2139.1514    21722.143    23861.294    1.1712222    3765.9438 
     261    253.43319    2089.1989    21568.963    23658.162    1.1712222    3731.9618 
     262    251.66882    2038.3804    21418.802    23457.183    1.1712222    3697.6325 
     263    249.93769    1986.8446    21271.471    23258.315    1.1712222    3663.0614 
     264    248.23681    1934.8041    21126.714    23061.518    1.1712222    3628.4017 
     265    246.56272    1882.5104    20984.237    22866.747    1.1712222    3593.8359 
     266    244.91189    1830.2415     20843.74    22673.981    1.1712222    3559.5541 
     267    243.28114    1778.2328    20704.951    22483.184    1.1712222    3525.7276 
     268    241.66794    1726.6795    20567.656    22294.336    1.1712222    3492.4885 
     269    240.07079    1675.6836    20431.728    22107.411    1.1712222    3459.9097 
     270    238.48953    1625.2266    20297.151    21922.378    1.1712222    3427.9795 
     271    236.92541    1575.1884    20164.034    21739.222    1.1712222    3396.6039 
     272    235.38078     1525.331    20032.575    21557.906    1.1712222    3365.6184 
     273    233.85834    1475.3978    19903.004    21378.402    1.1712222    3334.8328 
     274    232.36039    1425.1575    19775.517    21200.675    1.1712222    3304.0834 
     275    230.88835    1374.4522    19650.236    21024.689    1.1712222    3273.2551 
     276    229.44287    1323.2062    19527.216    20850.423    1.1712222    3242.2856 
     277    228.02406     1271.375    19406.465     20677.84    1.1712222    3211.1379 
     278    226.63151    1218.9609    19287.949     20506.91    1.1712222    3179.8049 
     279     225.2641    1166.0294    19171.573    20337.603    1.1712222    3148.3244 
     280    223.91983    1112.7251    19057.167    20169.892    1.1712222    3116.7888 
     281    222.59595    1059.2532    18944.495    20003.748    1.1712222    3085.3361 
     282    221.28942    1005.8378      18833.3    19839.137    1.1712222     3054.124 
     283    219.99732    952.72543    18723.333    19676.058    1.1712222    3023.3086 
     284    218.71711     900.0958    18614.378    19514.474    1.1712222    2993.0198 
     285    217.44673    848.12051     18506.26     19354.38    1.1712222    2963.3686 
     286    216.18468    796.89644     18398.85    19195.746    1.1712222    2934.4265 
     287    214.93018    746.49123    18292.084    19038.575    1.1712222    2906.2337 
     288    213.68328     696.8805    18185.963    18882.844    1.1712222    2878.7759 
     289    212.44472    647.98502    18080.553    18728.538    1.1712222    2851.9967 
     290    211.21569    599.68062    17975.954    18575.634    1.1712222    2825.8146 
     291    209.99733    551.86757    17872.263    18424.131    1.1712222    2800.1517 
     292    208.79036    504.45599    17769.541    18273.997    1.1712222    2774.9545 
     293    207.59482    457.42152    17667.792    18125.213    1.1712222    2750.2086 
     294    206.41013     410.8067    17566.967    17977.773    1.1712222    2725.9418 
     295    205.23542    364.68035    17466.991    17831.671    1.1712222    2702.2005 
     296    204.06984    319.09973    17367.791    17686.891    1.1712222    2679.0277 
     297    202.91278    274.09249    17269.317     17543.41    1.1712222    2656.4496 
     298    201.76395    229.68093    17171.544    17401.224    1.1712222    2634.4759 
     299    200.62334    185.84975     17074.47     17260.32    1.1712222    2613.0978 
     300     199.4912    142.56266    16978.117    17120.679    1.1712222    2592.2932 
     301      198.368    99.769668    16882.524    16982.294    1.1712222    2572.0245 
     302    197.25449    57.398301    16787.757    16845.155    1.1712222    2552.2393 
     303    196.15172    15.336587    16693.903     16709.24    1.1712222    2532.8616 
     304    195.06093   -26.524784    16601.069    16574.545    1.1712222    2513.8094 
     305    193.98337   -68.311435    16509.361     16441.05    1.1712222    2494.9937 
     306    192.92008   -110.13347    16418.868    16308.734    1.1712222    2476.3401 
     307    191.87175   -152.05983    16329.647    16177.587    1.1712222    2457.7929 
     308    190.83866    -194.1395    16241.724    16047.585    1.1712222    2439.3219 
     309    189.82086   -236.38383    16155.102    15918.718    1.1712222    2420.9127 
     310    188.81829   -278.80143    16069.776    15790.974    1.1712222    2402.5555 
     311    187.83105    -321.4263    15985.755    15664.328    1.1712222    2384.2279 
     312    186.85946   -364.28376    15903.066    15538.782    1.1712222    2365.8993 
     313    185.90404   -407.45677    15821.753    15414.296    1.1712222    2347.5209 
     314    184.96529   -450.99385    15741.858    15290.865    1.1712222    2329.0483 
     315     184.0434   -494.93769    15663.399    15168.461    1.1712222    2310.4511 
     316      183.138   -539.26517    15586.343    15047.078    1.1712222    2291.7387 
     317    182.24811   -583.92384    15510.607    14926.683    1.1712222    2272.9507 
     318    181.37239   -628.80303    15436.077    14807.274    1.1712222     2254.159 
     319     180.5095   -673.80485    15362.639    14688.834    1.1712222    2235.4294 
     320    179.65846   -718.86439    15290.209    14571.345    1.1712222    2216.8089 
     321    178.81874   -763.93643    15218.743    14454.807    1.1712222    2198.3202 
     322    177.99021   -809.04116    15148.229    14339.188    1.1712222    2179.9567 
     323    177.17298   -854.19199    15078.678    14224.486    1.1712222    2161.7038 
     324    176.36728    -899.4223    15010.107    14110.684    1.1712222    2143.5372 
     325    175.57329   -944.76496    14942.532    13997.767    1.1712222     2125.437 
     326    174.79111    -990.2464    14875.964    13885.717    1.1712222    2107.3859 
     327    174.02071   -1035.8708    14810.397    13774.527    1.1712222    2089.3778 
     328     173.2619   -1081.6287    14745.817    13664.188    1.1712222     2071.419 
     329    172.51429   -1127.5091     14682.19    13554.681    1.1712222    2053.5192 
     330    171.77737   -1173.4796    14619.473    13445.993    1.1712222    2035.7027 
     331    171.05046   -1219.4911    14557.608    13338.117    1.1712222    2018.0025 
     332    170.33281   -1265.4939    14496.531    13231.037    1.1712222    2000.4555 
     333    169.62362   -1311.4295    14436.174    13124.744    1.1712222    1983.1012 
     334    168.92215   -1357.2445    14376.473    13019.229    1.1712222    1965.9786 
     335    168.22773   -1402.8909    14317.374    12914.483    1.1712222    1949.1206 
     336    167.53985   -1448.3356     14258.83    12810.495    1.1712222    1932.5516 
     337    166.85815   -1493.5538    14200.813    12707.259    1.1712222    1916.2878 
     338    166.18242   -1538.5375    14143.303    12604.766    1.1712222    1900.3351 
     339     165.5126   -1583.2892    14086.297    12503.007    1.1712222    1884.6911 
     340    164.84873   -1627.8187    14029.796    12401.978    1.1712222     1869.348 
     341    164.19092   -1672.1478    13973.813    12301.665    1.1712222    1854.2906 
     342    163.53936   -1716.2978     13918.36    12202.062    1.1712222    1839.5033 
     343    162.89422   -1760.2955    13863.454    12103.159    1.1712222    1824.9684 
     344     162.2557   -1804.1582    13809.111    12004.953    1.1712222    1810.6691 
     345    161.62391   -1847.9095    13755.341    11907.432    1.1712222     1796.591 
     346     160.9989   -1891.5574    13702.148    11810.591    1.1712222     1782.727 
     347     160.3806   -1935.1022    13649.527    11714.425    1.1712222    1769.0748 
     348    159.76884   -1978.5411    13597.462    11618.921    1.1712222    1755.6389 
     349    159.16338   -2021.8631    13545.933     11524.07    1.1712222    1742.4285 
     350    158.56401   -2065.0576    13494.922    11429.865    1.1712222    1729.4525 
     351    157.97057   -2108.1154    13444.417    11336.301    1.1712222    1716.7151 
     352    157.38305   -2151.0288    13394.414    11243.385    1.1712222    1704.2148 
     353    156.80155   -2193.8293    13344.924    11151.095    1.1712222    1691.9363 
     354    156.22629   -2236.5433    13295.966    11059.422    1.1712222    1679.8607 
     355    155.65759   -2279.2008    13247.566    10968.365    1.1712222    1667.9601 
     356    155.09585   -2321.8425    13199.758    10877.915    1.1712222    1656.2025 
     357    154.54152   -2364.5145     13152.58    10788.065    1.1712222     1644.551 
     358    153.99506   -2407.2611    13106.072    10698.811    1.1712222    1632.9688 
     359     153.4569   -2450.1287    13060.271    10610.142    1.1712222    1621.4178 
     360    152.92733   -2493.1525    13015.201    10522.048    1.1712222    1609.8695 
     361    152.40647   -2536.3549    12970.872    10434.517    1.1712222    1598.3072 
     362    151.89418   -2579.7239    12927.273    10347.549    1.1712222    1586.7304 
     363    151.39014    -2623.248    12884.375    10261.127    1.1712222    1575.1537 
     364    150.89386   -2666.8845    12842.138    10175.254    1.1712222    1563.5983 
     365    150.40481   -2710.6057    12800.517    10089.911    1.1712222    1552.0897 
     366    149.92242   -2754.3592    12759.461    10005.102    1.1712222    1540.6594 
     367     149.4461   -2798.1131    12718.923    9920.8101    1.1712222     1529.333 
     368    148.97524   -2841.8052     12678.85    9837.0448    1.1712222    1518.1432 
     369     148.5092   -2885.4008    12639.187    9753.7862    1.1712222    1507.1192 
     370    148.04732   -2928.8467    12599.878    9671.0309    1.1712222    1496.2951 
     371    147.58897   -2972.0894    12560.869    9588.7795    1.1712222     1485.702 
     372    147.13365   -3015.0913    12522.117     9507.026    1.1712222    1475.3638 
     373    146.68101   -3057.8361    12483.595    9425.7587    1.1712222    1465.2924 
     374    146.23095   -3100.3069    12445.291    9344.9844    1.1712222    1455.4922 
     375    145.78355   -3142.5185    12407.214     9264.696    1.1712222    1445.9527 
     376    145.33907   -3184.5057    12369.386    9184.8801    1.1712222    1436.6519 
     377    144.89785   -3226.2912    12331.835    9105.5442    1.1712222    1427.5675 
     378     144.4603    -3267.919    12294.596    9026.6774    1.1712222    1418.6695 
     379    144.02678   -3309.4218    12257.701    8948.2789    1.1712222    1409.9351 
     380    143.59762    -3350.833    12221.176    8870.3434    1.1712222    1401.3412 
     381    143.17311    -3392.185    12185.047    8792.8623    1.1712222    1392.8684 
     382    142.75345   -3433.5019    12149.331    8715.8292    1.1712222    1384.5002 
     383    142.33879   -3474.7865    12114.041    8639.2545    1.1712222    1376.2281 
     384    141.92923   -3516.0687    12079.184    8563.1158    1.1712222    1368.0409 
     385    141.52479    -3557.351    12044.764    8487.4131    1.1712222    1359.9352 
     386    141.12546   -3598.6308    12010.778    8412.1471    1.1712222    1351.9103 
     387    140.73116    -3639.918     11977.22     8337.302    1.1712222    1343.9653 
     388     140.3418   -3681.1969    11944.083    8262.8858    1.1712222    1336.1056 
     389    139.95728   -3722.4704    11911.357    8188.8871    1.1712222    1328.3332 
     390    139.57753   -3763.7468    11879.038    8115.2912    1.1712222    1320.6446 
     391    139.20252   -3805.0068    11847.122    8042.1153    1.1712222    1313.0442 
     392     138.8323   -3846.2633    11815.614    7969.3504    1.1712222    1305.5235 
     393      138.467    -3887.544    11784.524    7896.9801    1.1712222    1298.0674 
     394    138.10684   -3928.8718    11753.872    7825.0005    1.1712222    1290.6577 
     395    137.75213   -3970.2697    11723.684     7753.414    1.1712222    1283.2742 
     396    137.40321   -4011.7721    11693.988    7682.2156    1.1712222    1275.8897 
     397    137.06042   -4053.4244    11664.814      7611.39    1.1712222    1268.4774 
     398     136.7241   -4095.2438    11636.191    7540.9473    1.1712222    1261.0148 
     399    136.39448   -4137.2628    11608.138    7470.8751    1.1712222    1253.4825 
     400    136.07167   -4179.5025    11580.665    7401.1623    1.1712222    1245.8657 
     401    135.75566   -4221.9638     11553.77    7331.8057    1.1712222    1238.1625 
     402    135.44627   -4264.6341    11527.438    7262.8043    1.1712222    1230.3785 
     403    135.14321    -4307.498    11501.646    7194.1477    1.1712222    1222.5252 
     404    134.84608   -4350.5274    11476.358    7125.8304    1.1712222    1214.6193 
     405    134.55441   -4393.6853    11451.535    7057.8497    1.1712222    1206.6854 
     406     134.2677    -4436.933    11427.134    6990.2013    1.1712222     1198.748 
     407    133.98545     -4480.23    11403.112    6922.8823    1.1712222    1190.8325 
     408    133.70715   -4523.5472    11379.427    6855.8803    1.1712222    1182.9601 
     409    133.43238   -4566.8435    11356.042    6789.1984    1.1712222    1175.1538 
     410    133.16072   -4610.0893    11332.922    6722.8331    1.1712222     1167.432 
     411    132.89189   -4653.2629    11310.042    6656.7795    1.1712222    1159.8058 
     412    132.62562   -4696.3435    11287.382    6591.0381    1.1712222    1152.2847 
     413    132.36177   -4739.3261    11264.926    6525.5999    1.1712222    1144.8738 
     414    132.10024   -4782.2021    11242.668    6460.4654    1.1712222    1137.5725 
     415    131.84098   -4824.9794    11220.603    6395.6234    1.1712222     1130.378 
     416      131.584    -4867.659    11198.732    6331.0728    1.1712222    1123.2852 
     417    131.32931   -4910.2332    11177.056    6266.8228    1.1712222    1116.2896 
     418    131.07694   -4952.7125    11155.577    6202.8649    1.1712222    1109.3847 
     419    130.82689   -4995.1077    11134.297    6139.1889    1.1712222    1102.5644 
     420    130.57916   -5037.4104    11113.213    6075.8023    1.1712222    1095.8257 
     421     130.3337   -5079.6293    11092.323    6012.6933    1.1712222    1089.1659 
     422    130.09046   -5121.7581    11071.621    5949.8628    1.1712222    1082.5816 
     423    129.84935   -5163.7939    11051.101    5887.3068    1.1712222    1076.0746 
     424    129.61028   -5205.7288    11030.754    5825.0254    1.1712222    1069.6455 
     425    129.37316   -5247.5552    11010.574    5763.0187    1.1712222    1063.2968 
     426    129.13793   -5289.2719    10990.554     5701.282    1.1712222    1057.0264 
     427    128.90455   -5330.8803    10970.692    5639.8112    1.1712222    1050.8312 
     428    128.67303   -5372.3927    10950.988    5578.5954    1.1712222    1044.7039 
     429    128.44346   -5413.8078     10931.45    5517.6423    1.1712222    1038.6398 
     430    128.21597   -5455.1309    10912.089    5456.9582    1.1712222    1032.6257 
     431    127.99075   -5496.3912    10892.921    5396.5293    1.1712222    1026.6438 
     432    127.76798   -5537.6098    10873.962    5336.3518    1.1712222    1020.6796 
     433    127.54787   -5578.8027    10855.229     5276.426    1.1712222    1014.7163 
     434    127.33056   -5619.9831    10836.734     5216.751    1.1712222    1008.7421 
     435    127.11613   -5661.1629    10818.485    5157.3218    1.1712222    1002.7483 
     436    126.90459   -5702.3425    10800.481    5098.1383    1.1712222    996.73143 
     437    126.69586   -5743.5197    10782.717    5039.1973    1.1712222    990.69192 
     438    126.48985   -5784.6822    10765.184    4980.5016    1.1712222    984.63464 
     439    126.28641   -5825.8357    10747.869    4922.0335    1.1712222    978.56179 
     440    126.08538   -5866.9587    10730.761    4863.8019    1.1712222    972.48179 
     441    125.88664   -5908.0444    10713.846    4805.8014    1.1712222    966.40066 
     442    125.69003   -5949.0749    10697.114    4748.0387    1.1712222    960.32566 
     443    125.49547    -5990.056    10680.555    4690.4987    1.1712222    954.25928 
     444    125.30284   -6030.9731    10664.161    4633.1878    1.1712222    948.20624 
     445    125.11208     -6071.83    10647.926    4576.0956    1.1712222    942.16858 
     446    124.92311   -6112.6153    10631.843    4519.2277    1.1712222    936.15027 
     447    124.73588   -6153.3215    10615.908    4462.5865    1.1712222     930.1542 
     448    124.55031   -6193.9635    10600.115    4406.1515    1.1712222    924.17969 
     449    124.36634     -6234.52    10584.458    4349.9379    1.1712222    918.23228 
     450    124.18389   -6274.9926     10568.93    4293.9376    1.1712222    912.31473 
     451    124.00288     -6315.38    10553.525     4238.145    1.1712222    906.42938 
     452    123.82323   -6355.6683    10538.236    4182.5673    1.1712222    900.58271 
     453    123.64487   -6395.8603    10523.056    4127.1956    1.1712222    894.77612 
     454    123.46774   -6435.9384     10507.98     4072.042    1.1712222    889.01352 
     455    123.29177   -6475.9209    10493.005    4017.0839    1.1712222    883.29275 
     456    123.11694   -6515.7888    10478.125    3962.3359    1.1712222    877.61955 
     457    122.94318   -6555.5435    10463.337     3907.793    1.1712222    871.99202 
     458    122.77046    -6595.186    10448.637    3853.4508    1.1712222    866.41088 
     459    122.59874   -6634.7132    10434.023    3799.3096    1.1712222    860.87663 
     460    122.42803   -6674.1302    10419.494    3745.3635    1.1712222    855.38558 
     461    122.25833    -6713.439    10405.051    3691.6123    1.1712222    849.93565 
     462     122.0897   -6752.6398      10390.7    3638.0603    1.1712222    844.52092 
     463    121.92225   -6791.7476    10376.449    3584.7009    1.1712222    839.13313 
     464     121.7561   -6830.7587    10362.308    3531.5494    1.1712222    833.76489 
     465    121.59142   -6869.7131    10348.292    3478.5792    1.1712222    828.39777 
     466    121.42837   -6908.6119    10334.416     3425.804    1.1712222    823.02387 
     467    121.26712   -6947.4768    10320.692    3373.2154    1.1712222    817.62886 
     468    121.10779   -6986.3121    10307.132    3320.8198    1.1712222    812.20442 
     469    120.95043   -7025.1287     10293.74    3268.6112    1.1712222    806.74484 
     470    120.79504   -7063.9312    10280.515    3216.5838    1.1712222    801.24826 
     471    120.64151   -7102.7139    10267.449    3164.7349    1.1712222    795.71838 
     472    120.48969   -7141.4549    10254.527    3113.0723    1.1712222    790.16538 
     473    120.33935   -7180.1393    10241.732    3061.5929    1.1712222     784.6019 
     474    120.19027   -7218.7553    10229.045    3010.2895    1.1712222    779.03834 
     475    120.04225   -7257.2862    10216.447    2959.1607    1.1712222    773.48606 
     476    119.89509   -7295.7128    10203.923    2908.2102    1.1712222    767.95774 
     477    119.74866   -7334.0195    10191.461    2857.4414    1.1712222    762.46363 
     478    119.60284   -7372.2107    10179.051    2806.8399    1.1712222    757.00699 
     479    119.45755   -7410.2665    10166.685    2756.4185    1.1712222    751.59581 
     480    119.31271   -7448.1935    10154.358    2706.1643    1.1712222    746.23231 
     481    119.16826   -7485.9812    10142.064    2656.0831    1.1712222    740.92206 
     482    119.02417   -7523.6346    10129.801    2606.1666    1.1712222    735.66563 
     483    118.88041   -7561.1389    10117.567    2556.4277    1.1712222    730.46849 
     484    118.73701   -7598.5055    10105.362    2506.8561    1.1712222    725.32794 
     485    118.59398   -7635.7372    10093.189    2457.4523    1.1712222    720.24161 
     486    118.45142   -7672.8415    10081.056    2408.2149    1.1712222    715.20535 
     487    118.30941   -7709.8265     10068.97    2359.1437    1.1712222    710.21525 
     488    118.16805   -7746.6965     10056.94    2310.2432    1.1712222    705.26376 
     489    118.02745   -7783.4713    10044.973    2261.5019    1.1712222    700.34393 
     490    117.88767   -7820.1507    10033.077    2212.9266    1.1712222    695.45149 
     491    117.74878   -7856.7408    10021.257    2164.5157    1.1712222    690.58369 
     492    117.61079     -7893.25    10009.512    2116.2623    1.1712222    685.73763 
     493    117.47368   -7929.6654    9997.8434    2068.1779    1.1712222    680.91366 
     494     117.3374   -7965.9953    9986.2456    2020.2503    1.1712222    676.11243 
     495    117.20189    -8002.235    9974.7127    1972.4778    1.1712222     671.3377 
     496    117.06705    -8038.368    9963.2369    1924.8689    1.1712222    666.59485 
     497    116.93278   -8074.3864    9951.8091    1877.4227    1.1712222    661.88952 
     498    116.79896   -8110.2904    9940.4201    1830.1297    1.1712222    657.22569 
     499    116.66549   -8146.0642    9929.0606    1782.9963    1.1712222    652.60911 
     500    116.53226   -8181.7005    9917.7219    1736.0214    1.1712222    648.04455 
     501    116.39919   -8217.1988    9906.3967    1689.1978    1.1712222    643.53545 
     502     116.2662   -8252.5454    9895.0788    1642.5334    1.1712222    639.08511 
     503    116.13325   -8287.7421    9883.7638    1596.0217    1.1712222    634.69392 
     504    116.00031   -8322.7821    9872.4494    1549.6673    1.1712222    630.36441 
     505    115.86737   -8357.6663    9861.1349    1503.4687    1.1712222    626.09528 
     506    115.73444   -8392.3947     9849.822    1457.4273    1.1712222    621.88419 
     507    115.60157   -8426.9743    9838.5139    1411.5396    1.1712222    617.72802 
     508    115.46882   -8461.4073     9827.216    1365.8087    1.1712222    613.62207 
     509    115.33628   -8495.7094    9815.9353     1320.226    1.1712222    609.55818 
     510    115.20403   -8529.8882    9804.6804    1274.7922    1.1712222    605.53053 
     511     115.0722   -8563.9482    9793.4609    1229.5127    1.1712222    601.53143 
     512    114.94092   -8597.9042    9782.2874    1184.3832    1.1712222    597.55369 
     513    114.81029    -8631.762    9771.1706    1139.4086    1.1712222    593.58875 
     514    114.68046   -8665.5312     9760.121    1094.5898    1.1712222    589.62892 
     515    114.55153   -8699.2309    9749.1482    1049.9173    1.1712222     585.6654 
     516    114.42361   -8732.8645    9738.2609    1005.3963    1.1712222    581.69354 
     517    114.29677   -8766.4474    9727.4665    961.01912    1.1712222     577.7042 
     518    114.17111   -8799.9781    9716.7713    916.79321    1.1712222    573.69478 
     519    114.04667   -8833.4694    9706.1805    872.71107    1.1712222    569.65963 
     520    113.92349   -8866.9176    9695.6975    828.77982    1.1712222    565.59645 
     521     113.8016   -8900.3308    9685.3234     784.9926    1.1712222    561.50362 
     522    113.68097   -8933.7094    9675.0568    741.34741    1.1712222    557.38063 
     523    113.56154    -8967.044    9664.8927    697.84868    1.1712222    553.23177 
     524    113.44322    -9000.333    9654.8227    654.48972    1.1712222    549.05984 
     525    113.32588   -9033.5585    9644.8364    611.27788    1.1712222    544.87318 
     526    113.20938   -9066.7163    9634.9218    568.20549    1.1712222    540.67832 
     527    113.09359     -9099.79     9625.067    525.27699    1.1712222    536.48551 
     528    112.97835   -9132.7711    9615.2594    482.48823    1.1712222    532.30016 
     529     112.8635    -9165.648    9605.4847    439.83672    1.1712222    528.13372 
     530    112.74883   -9198.3937    9595.7258     397.3321    1.1712222    523.99871 
     531     112.6341   -9230.9987    9585.9615    354.96271    1.1712222    519.90754 
     532    112.51903   -9263.4439    9576.1681    312.72413    1.1712222    515.87576 
     533    112.40335   -9295.6868    9566.3224     270.6356    1.1712222    511.92434 
     534    112.28683   -9327.7241    9556.4056    228.68146    1.1712222     508.0636 
     535    112.16934   -9359.5439     9546.407    186.86309    1.1712222     504.3017 
     536    112.05089   -9391.1378     9536.326    145.18824    1.1712222    500.63949 
     537     111.9316   -9422.5148    9526.1732    103.65838    1.1712222    497.07202 
     538    111.81169   -9453.7054     9515.968     62.26261    1.1712222    493.58214 
     539    111.69147    -9484.727    9505.7362    21.009204    1.1712222    490.15392 
     540    111.57126   -9515.6126     9495.506   -20.106635    1.1712222    486.76715 
     541    111.45139   -9546.3821     9485.304   -61.078151    1.1712222    483.40497 
     542     111.3321   -9577.0622     9475.152   -101.91019    1.1712222    480.05112 
     543    111.21359   -9607.6669    9465.0654   -142.60154    1.1712222    476.69626 
     544    111.09594   -9638.2136    9455.0526   -183.16096    1.1712222    473.33231 
     545    110.97918   -9668.6949    9445.1158   -223.57911    1.1712222    469.96055 
     546    110.86328   -9699.1146    9435.2518   -263.86281    1.1712222    466.58188 
     547    110.74816   -9729.4638     9425.454   -304.00988    1.1712222    463.20122 
     548     110.6337   -9759.7305    9415.7132    -344.0173    1.1712222    459.82676 
     549     110.5198   -9789.9104    9406.0191   -383.89131    1.1712222    456.46483 
     550    110.40632   -9819.9931    9396.3614   -423.63171    1.1712222    453.12334 
     551    110.29317   -9849.9677     9386.731   -463.23669    1.1712222    449.80831 
     552    110.18024   -9879.8184    9377.1204     -502.698    1.1712222     446.5287 
     553     110.0675   -9909.5563     9367.525   -542.03128    1.1712222     443.2839 
     554    109.95491   -9939.1718    9357.9425   -581.22929    1.1712222    440.07646 
     555    109.84247   -9968.6636    9348.3732   -620.29034    1.1712222    436.90569 
     556     109.7302   -9998.0419    9338.8189   -659.22302    1.1712222    433.76931 
     557    109.61815   -10027.292    9329.2822    -698.0102    1.1712222    430.66928 
     558    109.50633   -10056.429    9319.7656   -736.66363    1.1712222    427.60229 
     559    109.39476   -10085.457    9310.2704   -775.18619    1.1712222    424.56552 
     560    109.28344   -10114.375    9300.7964   -813.57826    1.1712222    421.55884 
     561    109.17235   -10143.174    9291.3417   -851.83218    1.1712222    418.58506 
     562    109.06144   -10171.858    9281.9025   -889.95547    1.1712222     415.6458 
     563    108.95066   -10200.424    9272.4739   -927.95021    1.1712222    412.74405 
     564    108.83994    -10228.86    9263.0507   -965.80907    1.1712222      409.885 
     565    108.72921   -10257.164    9253.6275   -1003.5364    1.1712222    407.07278 
     566    108.61844   -10285.333    9244.1999   -1041.1327    1.1712222    404.30883 
     567    108.50758   -10313.353    9234.7646   -1078.5883    1.1712222    401.59833 
     568     108.3966   -10341.234    9225.3196   -1115.9147    1.1712222    398.94055 
     569     108.2855   -10368.972    9215.8641   -1153.1077    1.1712222    396.33719 
     570    108.17428   -10396.565    9206.3985   -1190.1669    1.1712222    393.78774 
     571    108.06296   -10424.016    9196.9245    -1227.091    1.1712222    391.29186 
     572    107.95158   -10451.333    9187.4452   -1263.8876    1.1712222    388.84744 
     573    107.84019   -10478.517    9177.9652   -1300.5522    1.1712222    386.45063 
     574    107.72888   -10505.576    9168.4917    -1337.084    1.1712222    384.09756 
     575    107.61775   -10532.515     9159.034   -1373.4811    1.1712222     381.7826 
     576    107.50694   -10559.345    9149.6038    -1409.741    1.1712222    379.49789 
     577    107.39662    -10586.08    9140.2144   -1445.8655    1.1712222    377.23512 
     578    107.28695   -10612.743    9130.8807   -1481.8628    1.1712222     374.9811 
     579    107.17811   -10639.342    9121.6172   -1517.7253    1.1712222    372.72769 
     580    107.07025   -10665.895    9112.4376   -1553.4575    1.1712222    370.46468 
     581    106.96351   -10692.411    9103.3532   -1589.0582    1.1712222    368.18474 
     582    106.85798   -10718.901    9094.3724    -1624.529    1.1712222    365.88216 
     583    106.75373   -10745.372    9085.4996   -1659.8724    1.1712222    363.55276 
     584    106.65074   -10771.817    9076.7349   -1695.0822    1.1712222    361.19755 
     585    106.54898   -10798.238    9068.0746   -1730.1639    1.1712222    358.81663 
     586    106.44836   -10824.633    9059.5108   -1765.1222    1.1712222    356.41632 
     587    106.34875   -10850.977    9051.0328   -1799.9444    1.1712222     354.0041 
     588    106.24998    -10877.27    9042.6276   -1834.6428    1.1712222    351.58817 
     589    106.15192    -10903.49    9034.2812   -1869.2088    1.1712222    349.17793 
     590    106.05438    -10929.63    9025.9798   -1903.6502    1.1712222    346.78154 
     591    105.95721   -10955.674    9017.7106    -1937.963    1.1712222    344.40837 
     592     105.8603    -10981.61     9009.463   -1972.1474    1.1712222    342.06488 
     593    105.76355   -11007.433    9001.2285    -2006.205    1.1712222     339.7559 
     594    105.66688   -11033.138    8993.0013   -2040.1365    1.1712222    337.48511 
     595    105.57026   -11058.721    8984.7783   -2073.9425    1.1712222    335.25503 
     596    105.47369   -11084.176    8976.5592   -2107.6168    1.1712222      333.066 
     597     105.3772   -11109.516     8968.347    -2141.169    1.1712222     330.9132 
     598    105.28087   -11134.743    8960.1486   -2174.5941    1.1712222    328.79382 
     599    105.18483   -11159.871    8951.9752   -2207.8961    1.1712222    326.69725 
     600    105.08927   -11184.911    8943.8426   -2241.0689    1.1712222    324.61463 
     601    104.99442   -11209.884    8935.7704   -2274.1134    1.1712222    322.53031 
     602    104.90055    -11234.82    8927.7809   -2307.0389    1.1712222     320.4267 
     603    104.80791   -11259.732    8919.8963   -2339.8361    1.1712222    318.28956 
     604    104.71672   -11284.643    8912.1357   -2372.5078    1.1712222    316.10441 
     605    104.62714   -11309.574     8904.512   -2405.0619    1.1712222    313.85922 
     606    104.53923   -11334.524    8897.0301   -2437.4943    1.1712222    311.54996 
     607    104.45293   -11359.488    8889.6857   -2469.8025    1.1712222    309.17886 
     608     104.3681   -11384.453     8882.466   -2501.9866    1.1712222    306.75395 
     609    104.28451   -11409.403    8875.3515   -2534.0517    1.1712222    304.28705 
     610    104.20187   -11434.316    8868.3189   -2565.9974    1.1712222    301.79333 
     611    104.11991   -11459.169    8861.3435   -2597.8258    1.1712222    299.28738 
     612    104.03835   -11483.933    8854.4017   -2629.5317    1.1712222    296.78734 
     613    103.95693   -11508.588    8847.4726   -2661.1154    1.1712222     294.3064 
     614    103.87546    -11533.12    8840.5388   -2692.5811    1.1712222    291.85429 
     615    103.79377   -11557.513    8833.5867   -2723.9262    1.1712222    289.44128 
     616    103.71176   -11581.761    8826.6062    -2755.155    1.1712222    287.07268 
     617    103.62932    -11605.85    8819.5903   -2786.2593    1.1712222    284.75434 
     618    103.54641    -11629.78    8812.5343   -2817.2455    1.1712222    282.48809 
     619    103.46299   -11653.554    8805.4349   -2848.1186    1.1712222    280.27646 
     620    103.37905   -11677.156    8798.2903   -2878.8654    1.1712222    278.12232 
     621    103.29455   -11700.598    8791.0989   -2909.4988    1.1712222     276.0233 
     622    103.20949   -11723.878    8783.8598   -2940.0181    1.1712222    273.98122 
     623    103.12386   -11746.987    8776.5722   -2970.4143    1.1712222    271.99844 
     624    103.03766   -11769.926    8769.2355   -3000.6906    1.1712222    270.07419 
     625    102.95087   -11792.696    8761.8495    -3030.846    1.1712222    268.20869 
     626    102.86351   -11815.297    8754.4146   -3060.8821    1.1712222    266.40179 
     627    102.77559   -11837.725     8746.932   -3090.7926    1.1712222    264.65369 
     628    102.68714   -11859.991    8739.4042   -3120.5868    1.1712222    262.96111 
     629    102.59821   -11882.089    8731.8353   -3150.2539    1.1712222    261.32296 
     630    102.50885   -11904.038    8724.2308   -3179.8072    1.1712222    259.73251 
     631    102.41917   -11925.844    8716.5979   -3209.2464    1.1712222    258.18505 
     632    102.32925   -11947.505    8708.9455   -3238.5598    1.1712222    256.67505 
     633    102.23922   -11969.036    8701.2834   -3267.7523    1.1712222    255.19515 
     634     102.1492   -11990.442    8693.6221   -3296.8201    1.1712222     253.7394 
     635    102.05932   -12011.741    8685.9718   -3325.7693    1.1712222    252.29801 
     636    101.96967   -12032.944    8678.3422   -3354.6014    1.1712222    250.86405 
     637    101.88035   -12054.059     8670.741   -3383.3177    1.1712222    249.42984 
     638    101.79145   -12075.078    8663.1742   -3411.9042    1.1712222    247.99596 
     639    101.70299   -12096.018    8655.6456    -3440.372    1.1712222    246.55586 
     640    101.61499   -12116.873    8648.1568   -3468.7167    1.1712222    245.10902 
     641    101.52747   -12137.646    8640.7077   -3496.9379    1.1712222    243.65563 
     642     101.4404   -12158.337    8633.2974   -3525.0393    1.1712222    242.19544 
     643    101.35377   -12178.951    8625.9246   -3553.0265    1.1712222     240.7279 
     644    101.26757   -12199.477    8618.5883   -3580.8891    1.1712222    239.25698 
     645    101.18179   -12219.917    8611.2884   -3608.6287    1.1712222    237.78072 
     646    101.09646   -12240.278    8604.0262   -3636.2519    1.1712222    236.29658 
     647     101.0116   -12260.558     8596.804   -3663.7545    1.1712222    234.80592 
     648    100.92726    -12280.76    8589.6256   -3691.1346    1.1712222    233.30609 
     649    100.84348   -12300.888    8582.4954   -3718.3922    1.1712222    231.79476 
     650    100.76032   -12320.946    8575.4183   -3745.5279    1.1712222    230.26916 
     651    100.67784   -12340.944    8568.3988   -3772.5448    1.1712222    228.72703 
     652    100.59609   -12360.889     8561.441   -3799.4479    1.1712222    227.16492 
     653    100.51509   -12380.778    8554.5473   -3826.2303    1.1712222    225.58509 
     654    100.43486   -12400.607    8547.7188   -3852.8878    1.1712222    223.98794 
     655    100.35538   -12420.383    8540.9545   -3879.4285    1.1712222    222.37462 
     656    100.27661   -12440.099    8534.2513   -3905.8473    1.1712222    220.74905 
     657    100.19851   -12459.751    8527.6044   -3932.1462    1.1712222    219.11633 
     658      100.121   -12479.337    8521.0073   -3958.3293    1.1712222    217.48232 
     659    100.04398   -12498.841    8514.4525    -3984.389    1.1712222    215.85556 
     660    99.967366   -12518.266    8507.9321   -4010.3341    1.1712222    214.24012 
     661    99.891065   -12537.595    8501.4384   -4036.1567    1.1712222    212.64489 
     662    99.814998   -12556.828    8494.9645   -4061.8632    1.1712222    211.07412 
     663    99.739104   -12575.958    8488.5054    -4087.453    1.1712222    209.53316 
     664    99.663344   -12594.979    8482.0577   -4112.9218    1.1712222    208.02633 
     665    99.587713   -12613.888    8475.6209   -4138.2673    1.1712222    206.55571 
     666    99.512234   -12632.692    8469.1972    -4163.495    1.1712222    205.11921 
     667    99.436967   -12651.396    8462.7914   -4188.6042    1.1712222    203.71347 
     668       99.362   -12670.006    8456.4111   -4213.5947    1.1712222    202.33466 
     669     99.28745   -12688.528    8450.0665    -4238.462    1.1712222    200.97638 
     670    99.213458   -12706.985    8443.7692   -4263.2159    1.1712222    199.62807 
     671    99.140176   -12725.386    8437.5323    -4287.854    1.1712222    198.28165 
     672    99.067761   -12743.741    8431.3693   -4312.3716    1.1712222    196.92784 
     673    98.996363   -12762.059    8425.2929   -4336.7662    1.1712222    195.55822 
     674    98.926116   -12780.362    8419.3143   -4361.0481    1.1712222    194.16246 
     675    98.857124   -12798.657    8413.4426   -4385.2142    1.1712222    192.73394 
     676    98.789454   -12816.939    8407.6834   -4409.2559    1.1712222    191.26936 
     677    98.723131   -12835.228    8402.0389   -4433.1896    1.1712222     189.7642 
     678    98.658133   -12853.512    8396.5071    -4457.005    1.1712222    188.21955 
     679    98.594394   -12871.783    8391.0825   -4480.7007    1.1712222    186.64005 
     680    98.531811   -12890.036    8385.7562     -4504.28    1.1712222    185.02943 
     681    98.470248   -12908.262    8380.5168   -4527.7449    1.1712222    183.39643 
     682    98.409552   -12926.439    8375.3511   -4551.0884    1.1712222    181.74903 
     683    98.349561   -12944.565    8370.2454   -4574.3192    1.1712222    180.09504 
     684    98.290119   -12962.626    8365.1865   -4597.4393    1.1712222    178.44361 
     685    98.231087   -12980.612    8360.1624   -4620.4495    1.1712222    176.80199 
     686    98.172346   -12998.505    8355.1632   -4643.3415    1.1712222    175.17761 
     687    98.113814   -13016.299    8350.1817   -4666.1177    1.1712222    173.57724 
     688    98.055437   -13033.993    8345.2134   -4688.7797    1.1712222    172.00183 
     689    97.997199   -13051.589    8340.2569   -4711.3319    1.1712222     170.4516 
     690    97.939115   -13069.081    8335.3136   -4733.7673    1.1712222    168.92864 
     691    97.881228   -13086.469     8330.387    -4756.082    1.1712222    167.43153 
     692    97.823601   -13103.778    8325.4825   -4778.2958    1.1712222    165.95171 
     693    97.766308    -13120.99    8320.6064   -4800.3832    1.1712222     164.4928 
     694    97.709426   -13138.125    8315.7654   -4822.3599    1.1712222    163.04654 
     695    97.653028   -13155.189    8310.9655   -4844.2235    1.1712222    161.60945 
     696    97.597169   -13172.185    8306.2115   -4865.9736    1.1712222    160.17977 
     697    97.541888   -13189.124    8301.5067   -4887.6178    1.1712222    158.75436 
     698    97.487199   -13205.993    8296.8523    -4909.141    1.1712222     157.3364 
     699    97.433097   -13222.803    8292.2478   -4930.5551    1.1712222    155.92549 
     700     97.37956   -13239.544    8287.6914   -4951.8525    1.1712222    154.52437 
     701    97.326552   -13256.219    8283.1801   -4973.0393    1.1712222    153.13479 
     702    97.274038   -13272.824    8278.7108   -4994.1132    1.1712222    151.76237 
     703    97.221982   -13289.354    8274.2804   -5015.0732    1.1712222    150.40992 
     704    97.170356   -13305.811    8269.8867   -5035.9243    1.1712222    149.07794 
     705    97.119141   -13322.192     8265.528   -5056.6636    1.1712222    147.76887 
     706    97.068331   -13338.494    8261.2037     -5077.29    1.1712222    146.48551 
     707    97.017925   -13354.722    8256.9137   -5097.8084    1.1712222    145.22695 
     708    96.967926   -13370.873    8252.6585   -5118.2141    1.1712222    143.99584 
     709    96.918336   -13386.944     8248.438   -5138.5064    1.1712222    142.79332 
     710    96.869152   -13402.938    8244.2522   -5158.6857    1.1712222    141.61971 
     711     96.82036   -13418.858    8240.0996    -5178.758    1.1712222    140.47577 
     712    96.771933   -13434.691    8235.9781   -5198.7125    1.1712222    139.36616 
     713    96.723832   -13450.446    8231.8843   -5218.5619    1.1712222    138.29139 
     714    96.676009   -13466.113    8227.8143   -5238.2985    1.1712222    137.25547 
     715    96.628411   -13481.687    8223.7633   -5257.9238    1.1712222    136.26283 
     716    96.580985   -13497.169    8219.7271   -5277.4417    1.1712222    135.31525 
     717    96.533686   -13512.544    8215.7016   -5296.8426    1.1712222    134.41723 
     718    96.486483    -13527.82    8211.6843   -5316.1354    1.1712222    133.57115 
     719    96.439366   -13542.989    8207.6743   -5335.3143    1.1712222    132.77745 
     720    96.392345   -13558.063    8203.6724   -5354.3903    1.1712222    132.03416 
     721    96.345455   -13573.034    8199.6818   -5373.3522    1.1712222     131.3411 
     722    96.298754   -13587.908    8195.7072   -5392.2009    1.1712222    130.69446 
     723    96.252316   -13602.699     8191.755   -5410.9441    1.1712222    130.08873 
     724    96.206226   -13617.409    8187.8324   -5429.5767    1.1712222    129.51998 
     725    96.160569   -13632.039    8183.9467   -5448.0924    1.1712222     128.9842 
     726    96.115425   -13646.604    8180.1046    -5466.499    1.1712222    128.47472 
     727    96.070858   -13661.109    8176.3117   -5484.7974    1.1712222    127.98737 
     728     96.02692    -13675.56    8172.5722   -5502.9881    1.1712222    127.51992 
     729    95.983642   -13689.958    8168.8889   -5521.0693    1.1712222    127.06973 
     730    95.941044   -13704.302    8165.2635    -5539.038    1.1712222    126.63603 
     731    95.899138   -13718.596    8161.6971   -5556.8986    1.1712222    126.21755 
     732    95.857936   -13732.843    8158.1905   -5574.6522    1.1712222      125.814 
     733    95.817454   -13747.036    8154.7451   -5592.2906    1.1712222    125.42659 
     734    95.777712   -13761.189    8151.3629   -5609.8264    1.1712222    125.05058 
     735     95.73874     -13775.3     8148.046   -5627.2543    1.1712222    124.68645 
     736    95.700564   -13789.368    8144.7969   -5644.5706    1.1712222    124.33411 
     737    95.663206   -13803.399    8141.6175   -5661.7818    1.1712222    123.99028 
     738    95.626676   -13817.385    8138.5086    -5678.876    1.1712222    123.65801 
     739    95.590972   -13831.334      8135.47   -5695.8643    1.1712222    123.33539 
     740    95.556079   -13845.249    8132.5003   -5712.7488    1.1712222    123.02343 
     741    95.521977   -13859.124    8129.5979   -5729.5263    1.1712222    122.72312 
     742    95.488654   -13872.953    8126.7619   -5746.1915    1.1712222    122.43921 
     743    95.456112   -13886.746    8123.9924   -5762.7531    1.1712222    122.16896 
     744    95.424375   -13900.498    8121.2913   -5779.2065    1.1712222    121.91226 
     745    95.393486   -13914.213    8118.6624   -5795.5505    1.1712222    121.66677 
     746      95.3635   -13927.897    8116.1104   -5811.7863    1.1712222    121.42977 
     747    95.334474   -13941.556    8113.6401    -5827.916    1.1712222    121.19685 
     748     95.30645   -13955.186    8111.2551   -5843.9311    1.1712222    120.96761 
     749    95.279448   -13968.799     8108.957   -5859.8417    1.1712222    120.73915 
     750     95.25345   -13982.396    8106.7444   -5875.6512    1.1712222    120.51093 
     751    95.228408   -13995.968    8104.6132   -5891.3553    1.1712222    120.28626 
     752    95.204245    -14009.51    8102.5567   -5906.9536    1.1712222    120.06994 
     753     95.18087   -14023.016    8100.5674   -5922.4483    1.1712222    119.86525 
     754     95.15819   -14036.474    8098.6371   -5937.8365    1.1712222    119.67882 
     755     95.13612   -14049.882    8096.7588    -5953.123    1.1712222     119.5136 
     756      95.1146   -14063.226    8094.9273   -5968.2991    1.1712222    119.37183 
     757    95.093597   -14076.514    8093.1398   -5983.3744    1.1712222    119.25498 
     758     95.07311   -14089.742    8091.3962   -5998.3456    1.1712222    119.16152 
     759     95.05317   -14102.911    8089.6992   -6013.2122    1.1712222    119.08821 
     760    95.033842   -14116.037    8088.0542    -6027.983    1.1712222    119.02775 
     761    95.015219   -14129.111    8086.4692   -6042.6419    1.1712222    118.97565 
     762    94.997419   -14142.155    8084.9544   -6057.2006    1.1712222     118.9215 
     763    94.980586   -14155.179    8083.5218   -6071.6571    1.1712222    118.85434 
     764    94.964879   -14168.192     8082.185   -6086.0071    1.1712222    118.76375 
     765     94.95047   -14181.215    8080.9586   -6100.2567    1.1712222    118.63624 
     766    94.937535   -14194.263    8079.8578   -6114.4049    1.1712222    118.45962 
     767    94.926245   -14207.352     8078.897    -6128.455    1.1712222    118.22129 
     768     94.91676   -14220.494    8078.0897   -6142.4041    1.1712222     117.9107 
     769     94.90921   -14233.699    8077.4472   -6156.2514    1.1712222    117.51824 
     770    94.903696   -14246.976    8076.9779   -6169.9983    1.1712222    117.03745 
     771    94.900273   -14260.335    8076.6865   -6183.6484    1.1712222    116.46153 
     772    94.898948   -14273.772    8076.5738    -6197.198    1.1712222     115.7916 
     773    94.899679   -14287.288     8076.636   -6210.6524    1.1712222    115.02866 
     774    94.902373   -14300.872    8076.8653   -6224.0065    1.1712222    114.17773 
     775    94.906899   -14314.513    8077.2505   -6237.2629    1.1712222    113.24715 
     776    94.913089   -14328.199    8077.7773   -6250.4215    1.1712222    112.24708 
     777     94.92076    -14341.91    8078.4301     -6263.48    1.1712222    111.18909 
     778    94.929719   -14355.643    8079.1926   -6276.4507    1.1712222    110.08334 
     779    94.939781   -14369.373    8080.0489    -6289.324    1.1712222    108.94252 
     780     94.95078    -14383.09     8080.985   -6302.1051    1.1712222    107.77693 
     781    94.962574   -14396.788    8081.9888   -6314.7996    1.1712222    106.59425 
     782    94.975053   -14410.443    8083.0508   -6327.3926    1.1712222    105.40483 
     783    94.988133   -14424.063    8084.1641   -6339.8986    1.1712222    104.21109 
     784    95.001757    -14437.64    8085.3235    -6352.316    1.1712222    103.01866 
     785     95.01588   -14451.165    8086.5255   -6364.6396    1.1712222    101.83067 
[...]
     788    95.060827   -14491.427    8090.3508   -6401.0762    1.1712222    98.316635 
     789    95.076477   -14504.722    8091.6828   -6413.0387    1.1712222    97.175941 
     790    95.092327   -14517.948    8093.0317   -6424.9162    1.1712222    96.058069 
     791    95.108273   -14531.093    8094.3888   -6436.7045    1.1712222     94.97084 
     792    95.124206   -14544.148    8095.7448    -6448.403    1.1712222    93.920811 
     793    95.140013   -14557.104    8097.0901   -6460.0135    1.1712222    92.914549 
     794    95.155585   -14569.955    8098.4154     -6471.54    1.1712222    91.959076 
     795    95.170822   -14582.691    8099.7122   -6482.9787    1.1712222    91.060648 
     796    95.185637   -14595.312    8100.9731   -6494.3388    1.1712222    90.222284 
     797    95.199957   -14607.794    8102.1918   -6505.6018    1.1712222    89.452875 
     798    95.213722   -14620.155    8103.3633   -6516.7917    1.1712222    88.751739 
     799    95.226884   -14632.372    8104.4834    -6527.889    1.1712222      88.1259 
     800    95.239406   -14644.454    8105.5492   -6538.9048    1.1712222    87.575623 
     801    95.251261    -14656.39    8106.5581   -6549.8316    1.1712222    87.103419 
     802    95.262423   -14668.185    8107.5081   -6560.6772    1.1712222    86.710137 
     803    95.272874   -14679.836    8108.3975   -6571.4385    1.1712222    86.398674 
     804    95.282594   -14691.343    8109.2248   -6582.1186    1.1712222    86.169443 
     805    95.291567   -14702.706    8109.9884   -6592.7179    1.1712222    86.024009 
     806    95.299779   -14713.924    8110.6874   -6603.2366    1.1712222    85.962804 
     807    95.307221   -14724.983    8111.3207   -6613.6622    1.1712222       85.989 
     808     95.31389     -14735.9    8111.8883    -6624.012    1.1712222    86.100052 
     809    95.319793    -14746.67    8112.3907   -6634.2796    1.1712222    86.296018 
     810    95.324954   -14757.293    8112.8299   -6644.4626    1.1712222    86.578294 
     811     95.32941   -14767.778    8113.2091   -6654.5692    1.1712222    86.940452 
     812    95.333221   -14778.124    8113.5335   -6664.5905    1.1712222    87.382975 
     813     95.33647   -14788.334      8113.81   -6674.5237    1.1712222    87.899597 
     814    95.339263   -14798.432    8114.0477   -6684.3843    1.1712222     88.48053 
     815    95.341728   -14808.415    8114.2575    -6694.158    1.1712222    89.121872 
     816     95.34401   -14818.308    8114.4517   -6703.8566    1.1712222    89.812312 
     817    95.346269   -14828.113     8114.644    -6713.469    1.1712222    90.544227 
     818    95.348669   -14837.846    8114.8482   -6722.9973    1.1712222    91.306408 
     819    95.351374   -14847.531    8115.0784   -6732.4527    1.1712222    92.086859 
     820    95.354539   -14857.172    8115.3478   -6741.8246    1.1712222    92.876668 
     821    95.358312   -14866.789    8115.6689   -6751.1201    1.1712222    93.666277 
     822    95.362828   -14876.385    8116.0532    -6760.332    1.1712222    94.448029 
     823    95.368213   -14885.978    8116.5115   -6769.4669    1.1712222     95.21246 
     824    95.374586    -14895.58     8117.054   -6778.5257    1.1712222    95.951455 
     825    95.382062   -14905.197    8117.6902   -6787.5073    1.1712222    96.656733 
     826    95.390746   -14914.834    8118.4293    -6796.405    1.1712222    97.324019 
     827    95.400735    -14924.51    8119.2794   -6805.2307    1.1712222    97.943663 
     828    95.412108   -14934.214    8120.2474   -6813.9669    1.1712222    98.513698 
     829    95.424924   -14943.968    8121.3381   -6822.6304    1.1712222    99.025768 
     830    95.439208   -14953.768    8122.5537    -6831.214    1.1712222    99.481178 
     831    95.454953   -14963.616    8123.8937   -6839.7222    1.1712222    99.877626 
     832    95.472115   -14973.514    8125.3544   -6848.1596    1.1712222    100.21713 
     833     95.49062   -14983.447    8126.9293   -6856.5182    1.1712222    100.50584 
     834    95.510367   -14993.416    8128.6099    -6864.806    1.1712222    100.74778 
     835    95.531236   -15003.401     8130.386   -6873.0152    1.1712222    100.95259 
     836    95.553095    -15013.39    8132.2463   -6881.1435    1.1712222    101.12897 
     837    95.575808   -15023.385    8134.1794   -6889.2058    1.1712222    101.28169 
     838    95.599238   -15033.368    8136.1734   -6897.1946    1.1712222    101.42053 
     839    95.623248   -15043.327    8138.2168   -6905.1097    1.1712222    101.55347 
     840    95.647706    -15053.25    8140.2984   -6912.9513    1.1712222    101.68907 
     841    95.672486   -15063.131    8142.4073   -6920.7234    1.1712222     101.8327 
     842    95.697465   -15072.955    8144.5333   -6928.4219    1.1712222    101.99366 
     843    95.722531   -15082.722    8146.6665   -6936.0559    1.1712222    102.17456 
     844    95.747578   -15092.407    8148.7982   -6943.6092    1.1712222    102.38642 
     845    95.772511   -15102.018    8150.9202   -6951.0977    1.1712222    102.62943 
     846    95.797245   -15111.541    8153.0252    -6958.516    1.1712222    102.90957 
     847    95.821706   -15120.972     8155.107   -6965.8646    1.1712222    103.23086 
     848    95.845833   -15130.305    8157.1604   -6973.1448    1.1712222    103.59519 
     849     95.86958   -15139.538    8159.1814   -6980.3567    1.1712222    104.00452 
     850    95.892918   -15148.668    8161.1677   -6987.4999    1.1712222    104.46005 
     851    95.915841   -15157.692    8163.1186   -6994.5732    1.1712222    104.96172 
     852    95.938364    -15166.62    8165.0355    -7001.585    1.1712222    105.50574 
     853    95.960531   -15175.452     8166.922   -7008.5297    1.1712222    106.08957 
     854    95.982407   -15184.185    8168.7838   -7015.4013    1.1712222    106.70966 
     855    96.004077   -15192.843    8170.6281   -7022.2153    1.1712222    107.35721 
     856    96.025639   -15201.424    8172.4632   -7028.9611    1.1712222    108.02747 
     857    96.047191   -15209.938    8174.2974    -7035.641    1.1712222     108.7136 
     858    96.068823   -15218.392    8176.1384   -7042.2533    1.1712222    109.40842 
     859    96.090602   -15226.792     8177.992      -7048.8    1.1712222    110.10869 
     860    96.112565   -15235.143    8179.8612   -7055.2813    1.1712222     110.8114 
     861    96.134712   -15243.451    8181.7461   -7061.7049    1.1712222    111.51276 
     862    96.157004   -15251.706    8183.6433   -7068.0629    1.1712222    112.21743 
     863    96.179367   -15259.904    8185.5465   -7074.3577    1.1712222     112.9297 
     864    96.201701   -15268.044    8187.4473   -7080.5962    1.1712222      113.653 
     865    96.223892   -15276.104     8189.336   -7086.7679    1.1712222    114.39635 
     866    96.245828   -15284.082    8191.2028   -7092.8796    1.1712222    115.16505 
     867    96.267408   -15291.964    8193.0395   -7098.9245    1.1712222    115.96846 
     868    96.288566   -15299.756    8194.8402   -7104.9162    1.1712222    116.80639 
     869    96.309274   -15307.443    8196.6026   -7110.8406    1.1712222    117.68302 
     870    96.329554   -15315.032    8198.3285   -7116.7035    1.1712222    118.59632 
     871    96.349481   -15322.534    8200.0244   -7122.5098    1.1712222       119.54 
     872    96.369179   -15329.958    8201.7009   -7128.2567    1.1712222    120.50852 
     873    96.388818   -15337.314    8203.3723   -7133.9416    1.1712222    121.48979 
     874    96.408595   -15344.621    8205.0555   -7139.5657    1.1712222    122.47218 
     875    96.428719   -15351.898    8206.7682   -7145.1294    1.1712222    123.44252 
     876    96.449397   -15359.166     8208.528   -7150.6378    1.1712222    124.38533 
     877    96.470812   -15366.436    8210.3505    -7156.085    1.1712222    125.29165 
     878    96.493118    -15373.73    8212.2489    -7161.481    1.1712222    126.14664 
     879    96.516431   -15381.047    8214.2331   -7166.8143    1.1712222    126.94648 
     880    96.540828   -15388.403    8216.3094   -7172.0932    1.1712222    127.68349 
     881    96.566347   -15395.798    8218.4813   -7177.3165    1.1712222    128.35486 
     882    96.592995   -15403.228    8220.7492   -7182.4785    1.1712222     128.9605 
     883    96.620745   -15410.702     8223.111   -7187.5909    1.1712222     129.4992 
     884    96.649547   -15418.212    8225.5622   -7192.6499    1.1712222    129.97505 
     885    96.679325    -15425.75    8228.0965   -7197.6538    1.1712222    130.39201 
     886    96.709985   -15433.308    8230.7058   -7202.6027    1.1712222    130.75686 
     887    96.741418   -15440.877     8233.381   -7207.4957    1.1712222    131.07638 
     888     96.77351   -15448.454    8236.1123   -7212.3415    1.1712222    131.35593 
     889    96.806145    -15456.02    8238.8898   -7217.1305    1.1712222    131.60636 
     890    96.839209   -15463.571    8241.7038   -7221.8669    1.1712222     131.8335 
     891    96.872595     -15471.1    8244.5452    -7226.555    1.1712222    132.04318 
     892    96.906201   -15478.593    8247.4052   -7231.1882    1.1712222    132.24446 
     893    96.939931   -15486.049    8250.2759   -7235.7728    1.1712222    132.44242 
     894    96.973698   -15493.462    8253.1498   -7240.3122    1.1712222    132.64388 
     895    97.007421   -15500.821    8256.0198   -7244.8009    1.1712222    132.85488 
     896    97.041027    -15508.12    8258.8799   -7249.2401    1.1712222    133.08075 
     897    97.074456    -15515.36    8261.7249   -7253.6348    1.1712222    133.32505 
     898    97.107662   -15522.529     8264.551   -7257.9784    1.1712222    133.59407 
     899    97.140613   -15529.629    8267.3554   -7262.2734    1.1712222    133.88836 
     900    97.173294   -15536.664    8270.1367   -7266.5273    1.1712222    134.21053 
     901    97.205698   -15543.623    8272.8946   -7270.7285    1.1712222    134.56278 
     902    97.237831   -15550.522    8275.6294   -7274.8923    1.1712222    134.94428 
     903    97.269705   -15557.351     8278.342   -7279.0092    1.1712222    135.35584 
     904    97.301331   -15564.117    8281.0336   -7283.0832    1.1712222    135.79805 
     905     97.33272   -15570.815    8283.7051   -7287.1102    1.1712222    136.27217 
     906    97.363882   -15577.445    8286.3572   -7291.0879    1.1712222    136.77817 
     907    97.394822   -15584.012    8288.9904   -7295.0214    1.1712222    137.31715 
     908    97.425542   -15590.522    8291.6049   -7298.9176    1.1712222    137.88657 
     909    97.456045   -15596.972    8294.2008   -7302.7707    1.1712222    138.48851 
     910    97.486333   -15603.364    8296.7786   -7306.5859    1.1712222    139.12252 
     911    97.516413   -15609.706    8299.3386   -7310.3674    1.1712222    139.78871 
     912    97.546296    -15615.99    8301.8818   -7314.1077    1.1712222    140.48788 
     913    97.575997   -15622.211    8304.4097   -7317.8014    1.1712222    141.21995 
     914    97.605539   -15628.383    8306.9239   -7321.4592    1.1712222     141.9815 
     915    97.634947   -15634.503    8309.4267   -7325.0761    1.1712222    142.77233 
     916    97.664248   -15640.574    8311.9205   -7328.6533    1.1712222    143.59212 
     917    97.693472   -15646.599    8314.4076   -7332.1916    1.1712222    144.43769 
     918    97.722642   -15652.584    8316.8902    -7335.694    1.1712222    145.30684 
     919    97.751781   -15658.533    8319.3701   -7339.1628    1.1712222    146.19874 
     920    97.780904   -15664.442    8321.8487   -7342.5933    1.1712222    147.11294 
     921     97.81002   -15670.311    8324.3267    -7345.984    1.1712222    148.04934 
     922    97.839134   -15676.149    8326.8044   -7349.3444    1.1712222    149.00621 
     923    97.868243    -15681.94    8329.2819   -7352.6579    1.1712222    149.98755 
     924    97.897346   -15687.703    8331.7587   -7355.9443    1.1712222    150.98949 
     925    97.926438   -15693.432    8334.2347   -7359.1977    1.1712222    152.01399 
     926     97.95552   -15699.129    8336.7098   -7362.4194    1.1712222    153.06098 
     927    97.984597   -15704.785    8339.1844   -7365.6009    1.1712222    154.13238 
     928    98.013685   -15710.415      8341.66   -7368.7548    1.1712222     155.2246 
     929    98.042814   -15716.013    8344.1391   -7371.8744    1.1712222     156.3367 
     930    98.072029   -15721.589    8346.6255   -7374.9635    1.1712222     157.4642 
     931      98.1014   -15727.146    8349.1252   -7378.0205    1.1712222    158.60411 
     932    98.131016   -15732.691    8351.6457   -7381.0448    1.1712222    159.75047 
     933     98.16099   -15738.243    8354.1967   -7384.0463    1.1712222    160.89398 
     934    98.191449   -15743.799    8356.7889   -7387.0103    1.1712222    162.03003 
     935    98.222525   -15749.386    8359.4338    -7389.952    1.1712222    163.14726 
     936    98.254344   -15755.002    8362.1418   -7392.8599    1.1712222    164.23915 
     937    98.287007   -15760.663    8364.9216   -7395.7418    1.1712222    165.29718 
     938    98.320581   -15766.374     8367.779   -7398.5947    1.1712222    166.31896 
     939    98.355096   -15772.136    8370.7165   -7401.4194    1.1712222    167.30111 
     940     98.39055   -15777.948    8373.7339   -7404.2141    1.1712222     168.2426 
     941     98.42692   -15783.811    8376.8292   -7406.9816    1.1712222    169.14488 
     942    98.464179   -15789.733    8380.0002   -7409.7326    1.1712222    170.00637 
     943    98.502307   -15795.698    8383.2452   -7412.4526    1.1712222    170.83039 
     944    98.541301   -15801.707    8386.5639   -7415.1435    1.1712222    171.61615 
     945    98.581175   -15807.776    8389.9574   -7417.8182    1.1712222    172.35916 
     946    98.621953   -15813.893    8393.4279   -7420.4653    1.1712222    173.05802 
     947     98.66366   -15820.067    8396.9775   -7423.0891    1.1712222    173.71171 
     948    98.706306   -15826.311     8400.607   -7425.7041    1.1712222    174.31465 
     949    98.749879   -15832.599    8404.3153   -7428.2834    1.1712222    174.87165 
     950    98.794329   -15838.948    8408.0984   -7430.8497    1.1712222    175.37985 
     951     98.83957   -15845.339    8411.9487   -7433.3899    1.1712222    175.84642 
     952    98.885475   -15851.775    8415.8555    -7435.919    1.1712222     176.2749 
     953    98.931885   -15858.234    8419.8053   -7438.4289    1.1712222    176.67476 
     954    98.978617   -15864.701    8423.7826   -7440.9188    1.1712222    177.05619 
     955    99.025475   -15871.173    8427.7705   -7443.4024    1.1712222    177.42847 
     956    99.072261   -15877.621    8431.7523   -7445.8685    1.1712222    177.80637 
     957    99.118784   -15884.024    8435.7118    -7448.312    1.1712222    178.19901 
     958    99.164875    -15890.38    8439.6344   -7450.7452    1.1712222    178.61526 
     959    99.210384   -15896.675    8443.5076   -7453.1676    1.1712222    179.06221 
     960    99.255192   -15902.895    8447.3211   -7455.5738    1.1712222    179.54911 
     961    99.299209   -15909.032    8451.0672   -7457.9648    1.1712222    180.08097 
     962     99.34237    -15915.09    8454.7405   -7460.3492    1.1712222    180.65901 
     963    99.384639   -15921.061    8458.3379   -7462.7233    1.1712222    181.28622 
     964    99.425997   -15926.949    8461.8578   -7465.0914    1.1712222     181.9625 
     965    99.466444   -15932.751    8465.3001   -7467.4514    1.1712222    182.68807 
     966    99.505986   -15938.467    8468.6654   -7469.8012    1.1712222    183.46203 
     967    99.544637   -15944.102    8471.9549   -7472.1471    1.1712222    184.28161 
     968    99.582405   -15949.657    8475.1692   -7474.4875    1.1712222    185.14657 
     969    99.619294    -15955.12    8478.3087   -7476.8115    1.1712222    186.05869 
     970    99.655299     -15960.5     8481.373    -7479.127    1.1712222    187.01608 
     971    99.690404   -15965.801    8484.3607   -7481.4404    1.1712222    188.01704 
     972    99.724583   -15971.024    8487.2696   -7483.7547    1.1712222    189.06125 
     973    99.757803   -15976.164    8490.0968    -7486.067    1.1712222     190.1505 
     974    99.790026   -15981.219    8492.8392   -7488.3795    1.1712222    191.28655 
     975    99.821212   -15986.175    8495.4934   -7490.6818    1.1712222    192.47217 
     976    99.851328   -15991.037    8498.0564    -7492.981    1.1712222    193.70586 
     977    99.880349   -15995.808    8500.5263   -7495.2818    1.1712222    194.98741 
     978    99.908265    -16000.48    8502.9022   -7497.5777    1.1712222    196.31714 
     979    99.935086   -16005.054    8505.1848   -7499.8689    1.1712222    197.69268 
     980    99.960843   -16009.538    8507.3769   -7502.1613    1.1712222    199.11113 
     981    99.985595   -16013.943    8509.4835   -7504.4592    1.1712222    200.56541 
     982    100.00943    -16018.27    8511.5117   -7506.7585    1.1712222    202.05003 
     983    100.03245   -16022.526    8513.4711   -7509.0551    1.1712222    203.55793 
     984     100.0548   -16026.723    8515.3731   -7511.3497    1.1712222    205.07971 
     985    100.07662   -16030.886    8517.2304   -7513.6552    1.1712222    206.60363 
     986    100.09808    -16035.01    8519.0565   -7515.9531    1.1712222    208.12328 
     987    100.11932   -16039.121    8520.8645   -7518.2562    1.1712222    209.62513 
     988    100.14049   -16043.232    8522.6665   -7520.5655    1.1712222    211.10164 
     989    100.16171   -16047.345    8524.4723   -7522.8723    1.1712222    212.54619 
     990    100.18306   -16051.469    8526.2896    -7525.179    1.1712222    213.95386 
     991     100.2046   -16055.621    8528.1228   -7527.4979    1.1712222    215.31872 
     992    100.22635    -16059.79    8529.9738   -7529.8159    1.1712222    216.64334 
     993     100.2483   -16063.986    8531.8416   -7532.1441    1.1712222    217.92533 
     994     100.2704   -16068.193    8533.7223   -7534.4705    1.1712222    219.16947 
     995    100.29258   -16072.411    8535.6102   -7536.8007    1.1712222    220.37921 
     996    100.31476   -16076.635    8537.4975   -7539.1377    1.1712222    221.55981 
     997    100.33682   -16080.856     8539.375   -7541.4812    1.1712222    222.71798 
     998    100.35865   -16085.064    8541.2328   -7543.8315    1.1712222    223.85878 
     999    100.38013   -16089.254    8543.0612    -7546.193    1.1712222    224.99007 
    1000    100.40116   -16093.405    8544.8508   -7548.5544    1.1712222    226.12101 
Loop time of 68.7024 on 1 procs for 1000 steps with 29386 atoms

Performance: 1.258 ns/day, 19.084 hours/ns, 14.556 timesteps/s
99.2% CPU use with 1 MPI tasks x no OpenMP threads

MPI task timing breakdown:
Section |  min time  |  avg time  |  max time  |%varavg| %total
---------------------------------------------------------------
Pair    | 62.599     | 62.599     | 62.599     |   0.0 | 91.12
Bond    | 0.0045128  | 0.0045128  | 0.0045128  |   0.0 |  0.01
Neigh   | 1.8304     | 1.8304     | 1.8304     |   0.0 |  2.66
Comm    | 0.22491    | 0.22491    | 0.22491    |   0.0 |  0.33
Output  | 2.7021     | 2.7021     | 2.7021     |   0.0 |  3.93
Modify  | 1.1283     | 1.1283     | 1.1283     |   0.0 |  1.64
Other   |            | 0.2135     |            |       |  0.31

Nlocal:        29386.0 ave       29386 max       29386 min
Histogram: 1 0 0 0 0 0 0 0 0 0
Nghost:        28934.0 ave       28934 max       28934 min
Histogram: 1 0 0 0 0 0 0 0 0 0
Neighs:    2.05670e+06 ave  2.0567e+06 max  2.0567e+06 min
Histogram: 1 0 0 0 0 0 0 0 0 0

Total # of neighbors = 2056703
Ave neighs/atom = 69.989213
Ave special neighs/atom = 0.17014905
Neighbor list builds = 19
Dangerous builds = 0
undump          1
Total wall time: 0:01:09
